      -----------------------------------------------------------      
     |                   =====================                   |     
     |                           x T B                           |     
     |                   =====================                   |     
     |                         S. Grimme                         |     
     |          Mulliken Center for Theoretical Chemistry        |     
     |                    University of Bonn                     |     
      -----------------------------------------------------------      

   * xtb version 6.7.0 (08769fc) compiled by 'albert@albert-system' on 2024-03-04

   xtb is free software: you can redistribute it and/or modify it under
   the terms of the GNU Lesser General Public License as published by
   the Free Software Foundation, either version 3 of the License, or
   (at your option) any later version.
   
   xtb is distributed in the hope that it will be useful,
   but WITHOUT ANY WARRANTY; without even the implied warranty of
   MERCHANTABILITY or FITNESS FOR A PARTICULAR PURPOSE.  See the
   GNU Lesser General Public License for more details.
   
   Cite this work as:
   * C. Bannwarth, E. Caldeweyher, S. Ehlert, A. Hansen, P. Pracht,
     J. Seibert, S. Spicher, S. Grimme, WIREs Comput. Mol. Sci., 2020, 11,
     e01493. DOI: 10.1002/wcms.1493
   
   for GFN2-xTB:
   * C. Bannwarth, S. Ehlert and S. Grimme., J. Chem. Theory Comput., 2019,
     15, 1652-1671. DOI: 10.1021/acs.jctc.8b01176
   for GFN1-xTB:
   * S. Grimme, C. Bannwarth, P. Shushkov, J. Chem. Theory Comput., 2017,
     13, 1989-2009. DOI: 10.1021/acs.jctc.7b00118
   for GFN0-xTB:
   * P. Pracht, E. Caldeweyher, S. Ehlert, S. Grimme, ChemRxiv, 2019, preprint.
     DOI: 10.26434/chemrxiv.8326202.v1
   for GFN-FF:
   * S. Spicher and S. Grimme, Angew. Chem. Int. Ed., 2020, 59, 15665-15673.
     DOI: 10.1002/anie.202004239
   
   for ALPB and GBSA implicit solvation:
   * S. Ehlert, M. Stahn, S. Spicher, S. Grimme, J. Chem. Theory Comput.,
     2021, 17, 4250-4261. DOI: 10.1021/acs.jctc.1c00471
   
   for ddCOSMO and CPCM-X implicit solvation:
   * M. Stahn, S. Ehlert, S. Grimme, J. Phys. Chem. A,
     2023, XX, XXXX-XXXX. DOI: 10.1021/acs.jpca.3c04382
   
   for DFT-D4:
   * E. Caldeweyher, C. Bannwarth and S. Grimme, J. Chem. Phys., 2017,
     147, 034112. DOI: 10.1063/1.4993215
   * E. Caldeweyher, S. Ehlert, A. Hansen, H. Neugebauer, S. Spicher,
     C. Bannwarth and S. Grimme, J. Chem. Phys., 2019, 150, 154122.
     DOI: 10.1063/1.5090222
   * E. Caldeweyher, J.-M. Mewes, S. Ehlert and S. Grimme, Phys. Chem. Chem. Phys.
     2020, 22, 8499-8512. DOI: 10.1039/D0CP00502A
   
   for sTDA-xTB:
   * S. Grimme and C. Bannwarth, J. Chem. Phys., 2016, 145, 054103.
     DOI: 10.1063/1.4959605
   
   in the mass-spec context:
   * V. Asgeirsson, C. Bauer and S. Grimme, Chem. Sci., 2017, 8, 4879.
     DOI: 10.1039/c7sc00601b
   * J. Koopman and S. Grimme, ACS Omega 2019, 4, 12, 15120-15133.
     DOI: 10.1021/acsomega.9b02011
   
   for metadynamics refer to:
   * S. Grimme, J. Chem. Theory Comput., 2019, 155, 2847-2862
     DOI: 10.1021/acs.jctc.9b00143
   
   for SPH calculations refer to:
   * S. Spicher and S. Grimme, J. Chem. Theory Comput., 2021, 17, 1701-1714
     DOI: 10.1021/acs.jctc.0c01306
   
   for ONIOM refer to:
   * C. Plett, A. Katbashev, S. Ehlert, S. Grimme, M. Bursch,
     Phys. Chem. Chem. Phys., 2023, 25, 17860-17868. DOI: 10.1039/D3CP02178E
   
   for DIPRO refer to:
   * J. Kohn, N. Gildemeister, S. Grimme, D. Fazzi, A. Hansen,
     J. Chem. Phys., 2023, just accepted.
   
   for PTB refer to:
   * S. Grimme, M. Mueller, A. Hansen, J. Chem. Phys., 2023, 158, 124111.
     DOI: 10.1063/5.0137838
   
   with help from (in alphabetical order)
   P. Atkinson, C. Bannwarth, F. Bohle, G. Brandenburg, E. Caldeweyher
   M. Checinski, S. Dohm, S. Ehlert, S. Ehrlich, I. Gerasimov, C. Hölzer
   A. Katbashev, J. Kohn, J. Koopman, C. Lavigne, S. Lehtola, F. März, M. Müller,
   F. Musil, H. Neugebauer, J. Pisarek, C. Plett, P. Pracht, F. Pultar,
   J. Seibert, P. Shushkov, S. Spicher, M. Stahn, M. Steiner, T. Strunk,
   J. Stückrath, T. Rose, and J. Unsleber
   
 * started run on 2025/07/14 at 11:26:46.208     
   ID    Z sym.   atoms
    1   15 P      1
    2    6 C      2, 5, 9-14, 20, 23
    3    1 H      3, 4, 6-8, 15-19, 21, 22, 24-26

           -------------------------------------------------
          |                Calculation Setup                |
           -------------------------------------------------

          program call               : /home/minenky/programs/xtb/xtb-dist/bin/xtb m1_00_PEt2Ph-PBE0-D3-TZ-uniMM_13.xyz --charge 0 --T --ohess extreme --cycles 5000 --acc 0.01 --iterations 5000
          coordinate file            : m1_00_PEt2Ph-PBE0-D3-TZ-uniMM_13.xyz
          omp threads                :                    12

########################################################################
[WARNING] Please study the warnings concerning your input carefully
-1- prog_main_parseArguments: Unknown option '--T' provided
########################################################################

           -------------------------------------------------
          |                 G F N 2 - x T B                 |
           -------------------------------------------------

        Reference                      10.1021/acs.jctc.8b01176
      * Hamiltonian:
        H0-scaling (s, p, d)           1.850000    2.230000    2.230000
        zeta-weighting                 0.500000
      * Dispersion:
        s8                             2.700000
        a1                             0.520000
        a2                             5.000000
        s9                             5.000000
      * Repulsion:
        kExp                           1.500000    1.000000
        rExp                           1.000000
      * Coulomb:
        alpha                          2.000000
        third order                    shell-resolved
        anisotropic                    true
        a3                             3.000000
        a5                             4.000000
        cn-shift                       1.200000
        cn-exp                         4.000000
        max-rad                        5.000000


          ...................................................
          :                      SETUP                      :
          :.................................................:
          :  # basis functions                  65          :
          :  # atomic orbitals                  64          :
          :  # shells                           38          :
          :  # electrons                        60          :
          :  max. iterations                  5000          :
          :  Hamiltonian                  GFN2-xTB          :
          :  restarted?                      false          :
          :  GBSA solvation                  false          :
          :  PC potential                    false          :
          :  electronic temp.          300.0000000     K    :
          :  accuracy                    0.0100000          :
          :  -> integral cutoff          0.4500000E+02      :
          :  -> integral neglect         0.1000000E-09      :
          :  -> SCF convergence          0.1000000E-07 Eh   :
          :  -> wf. convergence          0.1000000E-05 e    :
          :  Broyden damping             0.4000000          :
          :  net charge                          0          :
          :  unpaired electrons                  0          :
          ...................................................

 iter      E             dE          RMSdq      gap      omega  full diag
   1    -32.0201488 -0.320201E+02  0.372E+00    3.98       0.0  T
   2    -32.0645971 -0.444483E-01  0.219E+00    3.63       1.0  T
   3    -32.0645758  0.213693E-04  0.913E-01    3.40       1.0  T
   4    -32.0657646 -0.118886E-02  0.261E-01    3.44       1.0  T
   5    -32.0666164 -0.851735E-03  0.120E-01    3.48       1.0  T
   6    -32.0668235 -0.207130E-03  0.466E-02    3.47       1.0  T
   7    -32.0668438 -0.203445E-04  0.148E-02    3.47       1.3  T
   8    -32.0668445 -0.629532E-06  0.638E-03    3.47       3.1  T
   9    -32.0668448 -0.360448E-06  0.148E-03    3.47      13.3  T
  10    -32.0668448 -0.254237E-07  0.485E-04    3.47      40.4  T
  11    -32.0668448 -0.644299E-09  0.230E-04    3.47      85.3  T
  12    -32.0668448 -0.380339E-09  0.691E-05    3.47     283.6  T
  13    -32.0668448 -0.846967E-11  0.271E-05    3.47     723.8  T
  14    -32.0668448 -0.140687E-11  0.861E-06    3.47    2277.2  T
  15    -32.0668448 -0.206057E-12  0.262E-06    3.47    7480.1  T

   *** convergence criteria satisfied after 15 iterations ***

         #    Occupation            Energy/Eh            Energy/eV
      -------------------------------------------------------------
         1        2.0000           -0.6604489             -17.9717
       ...           ...                  ...                  ...
        24        2.0000           -0.4378172             -11.9136
        25        2.0000           -0.4263109             -11.6005
        26        2.0000           -0.4138170             -11.2605
        27        2.0000           -0.4110817             -11.1861
        28        2.0000           -0.4028290             -10.9615
        29        2.0000           -0.4019049             -10.9364
        30        2.0000           -0.3567213              -9.7069 (HOMO)
        31                         -0.2292373              -6.2379 (LUMO)
        32                         -0.2222273              -6.0471
        33                         -0.1505417              -4.0964
        34                         -0.1396569              -3.8003
        35                         -0.0975086              -2.6533
       ...                                ...                  ...
        64                          0.8099510              22.0399
      -------------------------------------------------------------
                  HL-Gap            0.1274840 Eh            3.4690 eV
             Fermi-level           -0.2929793 Eh           -7.9724 eV

 SCC (total)                   0 d,  0 h,  0 min,  0.088 sec
 SCC setup                      ...        0 min,  0.000 sec (  0.156%)
 Dispersion                     ...        0 min,  0.000 sec (  0.140%)
 classical contributions        ...        0 min,  0.000 sec (  0.013%)
 integral evaluation            ...        0 min,  0.002 sec (  2.111%)
 iterations                     ...        0 min,  0.084 sec ( 95.433%)
 molecular gradient             ...        0 min,  0.002 sec (  2.034%)
 printout                       ...        0 min,  0.000 sec (  0.094%)

         :::::::::::::::::::::::::::::::::::::::::::::::::::::
         ::                     SUMMARY                     ::
         :::::::::::::::::::::::::::::::::::::::::::::::::::::
         :: total energy             -31.552068980729 Eh    ::
         :: gradient norm              0.032866312019 Eh/a0 ::
         :: HOMO-LUMO gap              3.469015815924 eV    ::
         ::.................................................::
         :: SCC energy               -32.066668613924 Eh    ::
         :: -> isotropic ES            0.004016023359 Eh    ::
         :: -> anisotropic ES          0.006314571782 Eh    ::
         :: -> anisotropic XC          0.021655240824 Eh    ::
         :: -> dispersion             -0.024328142719 Eh    ::
         :: repulsion energy           0.514599633195 Eh    ::
         :: add. restraining           0.000000000000 Eh    ::
         :: total charge               0.000000000000 e     ::
         :::::::::::::::::::::::::::::::::::::::::::::::::::::

      ----------------------------------------------------------- 
     |                   =====================                   |
     |                        A N C O P T                        |
     |                   =====================                   |
     |               Approximate Normal Coordinate               |
     |                Rational Function Optimizer                |
      ----------------------------------------------------------- 
      ----------------------------------------------------------- 
     |                   =====================                   |
     |                        A N C O P T                        |
     |                   =====================                   |
     |               Approximate Normal Coordinate               |
     |                Rational Function Optimizer                |
      ----------------------------------------------------------- 

          ...................................................
          :                      SETUP                      :
          :.................................................:
          :   optimization level           extreme          :
          :   max. optcycles                  5000          :
          :   ANC micro-cycles                  20          :
          :   degrees of freedom                72          :
          :.................................................:
          :   RF solver                   davidson          :
          :   write xtbopt.log                true          :
          :   linear?                        false          :
          :   energy convergence         0.5000000E-07 Eh   :
          :   grad. convergence          0.5000000E-04 Eh/α :
          :   maxmium RF displ.          1.0000000          :
          :   Hlow (freq-cutoff)         0.1000000E-01      :
          :   Hmax (freq-cutoff)         5.0000000          :
          :   S6 in model hess.         20.0000000          :
          ...................................................

generating ANC from model Hessian ...
Using Lindh-Hessian (1995)
 Shifting diagonal of input Hessian by   9.324632740657510E-003
 Lowest  eigenvalues of input Hessian
    0.000000    0.000000    0.000000    0.000000    0.000000    0.000000
    0.010000    0.010565    0.010874    0.011354    0.012341    0.013431
    0.015364    0.018362    0.018562    0.019970    0.024036    0.025915
 Highest eigenvalues
    1.347117    1.535537    1.561942    1.864450    1.965980    1.985846
 

........................................................................
.............................. CYCLE    1 ..............................
........................................................................

 iter      E             dE          RMSdq      gap      omega  full diag
   1    -32.0668448 -0.320668E+02  0.153E-06    3.47       0.0  T
   2    -32.0668448  0.426326E-13  0.923E-07    3.47   21251.3  T
   3    -32.0668448 -0.568434E-13  0.650E-07    3.47   30180.1  T
     SCC iter.                  ...        0 min,  0.074 sec
     gradient                   ...        0 min,  0.002 sec
 * total energy  :   -31.5520690 Eh     change       -0.7815970E-13 Eh
   gradient norm :     0.0328663 Eh/α   predicted     0.0000000E+00 (-100.00%)
   displ. norm   :     0.2645835 α      lambda       -0.4927211E-02
   maximum displ.:     0.1190992 α      in ANC's #4, #17, #8, ...

........................................................................
.............................. CYCLE    2 ..............................
........................................................................

 iter      E             dE          RMSdq      gap      omega  full diag
   1    -32.0722570 -0.320723E+02  0.311E-01    3.64       0.0  T
   2    -32.0723780 -0.120971E-03  0.144E-01    3.66       1.0  T
   3    -32.0723886 -0.106163E-04  0.440E-02    3.68       1.0  T
   4    -32.0723894 -0.835374E-06  0.222E-02    3.68       1.0  T
   5    -32.0723919 -0.241719E-05  0.843E-03    3.68       2.3  T
   6    -32.0723932 -0.137020E-05  0.167E-03    3.68      11.7  T
   7    -32.0723932 -0.255191E-09  0.576E-04    3.68      34.0  T
   8    -32.0723932 -0.114154E-08  0.210E-04    3.68      93.3  T
   9    -32.0723932 -0.328825E-09  0.635E-05    3.68     309.0  T
  10    -32.0723932 -0.286917E-10  0.310E-05    3.68     631.8  T
  11    -32.0723932 -0.722622E-11  0.914E-06    3.68    2145.8  T
  12    -32.0723932 -0.376588E-12  0.479E-06    3.68    4091.0  T
     SCC iter.                  ...        0 min,  0.076 sec
     gradient                   ...        0 min,  0.002 sec
 * total energy  :   -31.5545658 Eh     change       -0.2496787E-02 Eh
   gradient norm :     0.0114675 Eh/α   predicted    -0.2636123E-02 (   5.58%)
   displ. norm   :     0.2079000 α      lambda       -0.9740434E-03
   maximum displ.:     0.1483554 α      in ANC's #4, #13, #9, ...

........................................................................
.............................. CYCLE    3 ..............................
........................................................................

 iter      E             dE          RMSdq      gap      omega  full diag
   1    -32.0757323 -0.320757E+02  0.926E-02    3.65       0.0  T
   2    -32.0757358 -0.355481E-05  0.494E-02    3.64       1.0  T
   3    -32.0757355  0.286553E-06  0.128E-02    3.63       1.5  T
   4    -32.0757361 -0.601523E-06  0.478E-03    3.63       4.1  T
   5    -32.0757364 -0.229749E-06  0.150E-03    3.63      13.1  T
   6    -32.0757364 -0.314314E-07  0.456E-04    3.63      43.0  T
   7    -32.0757364 -0.669758E-09  0.173E-04    3.63     113.1  T
   8    -32.0757364 -0.101323E-10  0.626E-05    3.63     313.2  T
   9    -32.0757364 -0.267093E-10  0.304E-05    3.63     645.7  T
  10    -32.0757364 -0.977707E-11  0.126E-05    3.63    1550.6  T
  11    -32.0757364 -0.682121E-12  0.540E-06    3.63    3634.5  T
  12    -32.0757364 -0.639488E-13  0.152E-06    3.63   12881.0  T
     SCC iter.                  ...        0 min,  0.076 sec
     gradient                   ...        0 min,  0.002 sec
 * total energy  :   -31.5551968 Eh     change       -0.6309986E-03 Eh
   gradient norm :     0.0046290 Eh/α   predicted    -0.5081451E-03 ( -19.47%)
   displ. norm   :     0.1929170 α      lambda       -0.3494501E-03
   maximum displ.:     0.1592308 α      in ANC's #4, #2, #9, ...

........................................................................
.............................. CYCLE    4 ..............................
........................................................................

 iter      E             dE          RMSdq      gap      omega  full diag
   1    -32.0765032 -0.320765E+02  0.557E-02    3.62       0.0  T
   2    -32.0765040 -0.821469E-06  0.316E-02    3.62       1.0  T
   3    -32.0765038  0.223319E-06  0.849E-03    3.62       2.3  T
   4    -32.0765042 -0.371579E-06  0.212E-03    3.62       9.3  T
   5    -32.0765042 -0.978920E-08  0.108E-03    3.62      18.1  T
   6    -32.0765042 -0.193144E-07  0.442E-04    3.62      44.4  T
   7    -32.0765042 -0.308503E-09  0.131E-04    3.62     150.0  T
   8    -32.0765042 -0.845404E-10  0.492E-05    3.62     398.5  T
   9    -32.0765042  0.186873E-11  0.236E-05    3.62     830.8  T
  10    -32.0765042 -0.837019E-11  0.917E-06    3.62    2139.6  T
  11    -32.0765042 -0.312639E-12  0.342E-06    3.62    5741.2  T
     SCC iter.                  ...        0 min,  0.075 sec
     gradient                   ...        0 min,  0.002 sec
 * total energy  :   -31.5554475 Eh     change       -0.2507460E-03 Eh
   gradient norm :     0.0025712 Eh/α   predicted    -0.1812655E-03 ( -27.71%)
   displ. norm   :     0.1552710 α      lambda       -0.1655409E-03
   maximum displ.:     0.1224469 α      in ANC's #4, #3, #2, ...

........................................................................
.............................. CYCLE    5 ..............................
........................................................................

 iter      E             dE          RMSdq      gap      omega  full diag
   1    -32.0765737 -0.320766E+02  0.418E-02    3.62       0.0  T
   2    -32.0765739 -0.275732E-06  0.244E-02    3.62       1.0  T
   3    -32.0765738  0.116324E-06  0.581E-03    3.62       3.4  T
   4    -32.0765740 -0.191236E-06  0.138E-03    3.62      14.2  T
   5    -32.0765740  0.368622E-08  0.800E-04    3.62      24.5  T
   6    -32.0765740 -0.636722E-08  0.293E-04    3.62      67.0  T
   7    -32.0765740 -0.139735E-09  0.645E-05    3.62     303.9  T
   8    -32.0765740 -0.101039E-10  0.323E-05    3.62     607.5  T
   9    -32.0765740 -0.817124E-11  0.136E-05    3.62    1440.9  T
  10    -32.0765740 -0.164846E-11  0.684E-06    3.62    2865.1  T
  11    -32.0765740 -0.206057E-12  0.261E-06    3.62    7509.3  T
     SCC iter.                  ...        0 min,  0.075 sec
     gradient                   ...        0 min,  0.002 sec
 * total energy  :   -31.5555770 Eh     change       -0.1294973E-03 Eh
   gradient norm :     0.0026236 Eh/α   predicted    -0.8476620E-04 ( -34.54%)
   displ. norm   :     0.1657334 α      lambda       -0.1264106E-03
   maximum displ.:     0.1184642 α      in ANC's #4, #3, #2, ...

........................................................................
.............................. CYCLE    6 ..............................
........................................................................

 iter      E             dE          RMSdq      gap      omega  full diag
   1    -32.0764518 -0.320765E+02  0.461E-02    3.62       0.0  T
   2    -32.0764521 -0.313474E-06  0.272E-02    3.62       1.0  T
   3    -32.0764518  0.329882E-06  0.609E-03    3.62       3.2  T
   4    -32.0764522 -0.411880E-06  0.120E-03    3.62      16.4  T
   5    -32.0764522 -0.113660E-07  0.718E-04    3.62      27.3  T
   6    -32.0764522 -0.720832E-08  0.288E-04    3.62      68.1  T
   7    -32.0764522 -0.147139E-09  0.850E-05    3.62     230.7  T
   8    -32.0764522 -0.307168E-10  0.357E-05    3.62     549.7  T
   9    -32.0764522 -0.129106E-10  0.137E-05    3.62    1428.3  T
  10    -32.0764522 -0.262901E-12  0.383E-06    3.62    5118.1  T
  11    -32.0764522 -0.355271E-13  0.203E-06    3.62    9671.8  T
     SCC iter.                  ...        0 min,  0.075 sec
     gradient                   ...        0 min,  0.002 sec
 * total energy  :   -31.5556730 Eh     change       -0.9600621E-04 Eh
   gradient norm :     0.0022372 Eh/α   predicted    -0.6494182E-04 ( -32.36%)
   displ. norm   :     0.1738022 α      lambda       -0.8606278E-04
   maximum displ.:     0.1143002 α      in ANC's #4, #3, #2, ...

........................................................................
.............................. CYCLE    7 ..............................
........................................................................

 iter      E             dE          RMSdq      gap      omega  full diag
   1    -32.0763392 -0.320763E+02  0.500E-02    3.62       0.0  T
   2    -32.0763396 -0.373329E-06  0.294E-02    3.63       1.0  T
   3    -32.0763391  0.420297E-06  0.668E-03    3.63       2.9  T
   4    -32.0763397 -0.504306E-06  0.134E-03    3.63      14.6  T
   5    -32.0763397 -0.294696E-07  0.647E-04    3.63      30.3  T
   6    -32.0763397 -0.622587E-08  0.240E-04    3.63      81.8  T
   7    -32.0763397 -0.664571E-10  0.853E-05    3.63     229.9  T
   8    -32.0763397 -0.485016E-10  0.304E-05    3.63     645.8  T
   9    -32.0763397 -0.105018E-10  0.110E-05    3.63    1783.6  T
  10    -32.0763397 -0.198952E-12  0.317E-06    3.63    6179.9  T
  11    -32.0763397 -0.923706E-13  0.150E-06    3.63   13115.8  T
     SCC iter.                  ...        0 min,  0.075 sec
     gradient                   ...        0 min,  0.002 sec
 * total energy  :   -31.5557294 Eh     change       -0.5638769E-04 Eh
   gradient norm :     0.0019216 Eh/α   predicted    -0.4433165E-04 ( -21.38%)
   displ. norm   :     0.1233770 α      lambda       -0.2723088E-04
   maximum displ.:     0.0788125 α      in ANC's #3, #4, #2, ...

........................................................................
.............................. CYCLE    8 ..............................
........................................................................

 iter      E             dE          RMSdq      gap      omega  full diag
   1    -32.0769007 -0.320769E+02  0.399E-02    3.63       0.0  T
   2    -32.0769009 -0.252781E-06  0.233E-02    3.63       1.0  T
   3    -32.0769007  0.209471E-06  0.476E-03    3.63       4.1  T
   4    -32.0769010 -0.244158E-06  0.126E-03    3.63      15.5  T
   5    -32.0769010 -0.282550E-07  0.429E-04    3.63      45.7  T
   6    -32.0769010 -0.233647E-08  0.178E-04    3.63     110.2  T
   7    -32.0769010 -0.783231E-10  0.582E-05    3.63     336.8  T
   8    -32.0769010 -0.268443E-10  0.167E-05    3.63    1176.6  T
   9    -32.0769010 -0.396483E-11  0.696E-06    3.63    2818.4  T
  10    -32.0769010 -0.305533E-12  0.278E-06    3.63    7046.9  T
     SCC iter.                  ...        0 min,  0.075 sec
     gradient                   ...        0 min,  0.002 sec
 * total energy  :   -31.5557550 Eh     change       -0.2561722E-04 Eh
   gradient norm :     0.0012465 Eh/α   predicted    -0.1371036E-04 ( -46.48%)
   displ. norm   :     0.0693901 α      lambda       -0.1529029E-04
   maximum displ.:     0.0444326 α      in ANC's #3, #1, #9, ...

........................................................................
.............................. CYCLE    9 ..............................
........................................................................

 iter      E             dE          RMSdq      gap      omega  full diag
   1    -32.0771653 -0.320772E+02  0.236E-02    3.63       0.0  T
   2    -32.0771653 -0.269043E-07  0.139E-02    3.63       1.4  T
   3    -32.0771653  0.329398E-08  0.937E-04    3.63      20.9  T
   4    -32.0771653 -0.107872E-07  0.462E-04    3.63      42.5  T
   5    -32.0771653 -0.189732E-08  0.171E-04    3.63     114.8  T
   6    -32.0771653 -0.786073E-10  0.724E-05    3.63     271.0  T
   7    -32.0771653 -0.178630E-10  0.214E-05    3.63     917.3  T
   8    -32.0771653 -0.719780E-11  0.780E-06    3.63    2515.3  T
   9    -32.0771653 -0.355271E-12  0.430E-06    3.63    4561.4  T
     SCC iter.                  ...        0 min,  0.074 sec
     gradient                   ...        0 min,  0.002 sec
 * total energy  :   -31.5557740 Eh     change       -0.1898385E-04 Eh
   gradient norm :     0.0008911 Eh/α   predicted    -0.7661888E-05 ( -59.64%)
   displ. norm   :     0.1309027 α      lambda       -0.2290858E-04
   maximum displ.:     0.0782368 α      in ANC's #3, #1, #9, ...

........................................................................
.............................. CYCLE   10 ..............................
........................................................................

 iter      E             dE          RMSdq      gap      omega  full diag
   1    -32.0768960 -0.320769E+02  0.435E-02    3.63       0.0  T
   2    -32.0768960 -0.665744E-07  0.256E-02    3.63       1.0  T
   3    -32.0768960  0.937279E-08  0.159E-03    3.63      12.3  T
   4    -32.0768961 -0.375928E-07  0.567E-04    3.63      34.6  T
   5    -32.0768961 -0.347974E-09  0.274E-04    3.63      71.6  T
   6    -32.0768961 -0.533447E-09  0.993E-05    3.63     197.5  T
   7    -32.0768961 -0.339284E-10  0.241E-05    3.63     813.5  T
   8    -32.0768961 -0.157030E-11  0.103E-05    3.63    1910.4  T
   9    -32.0768961 -0.788702E-12  0.431E-06    3.63    4554.7  T
  10    -32.0768961 -0.710543E-13  0.192E-06    3.63   10229.2  T
     SCC iter.                  ...        0 min,  0.075 sec
     gradient                   ...        0 min,  0.002 sec
 * total energy  :   -31.5557996 Eh     change       -0.2555019E-04 Eh
   gradient norm :     0.0009487 Eh/α   predicted    -0.1154717E-04 ( -54.81%)
   displ. norm   :     0.1214039 α      lambda       -0.1478732E-04
   maximum displ.:     0.0817847 α      in ANC's #1, #3, #9, ...

........................................................................
.............................. CYCLE   11 ..............................
........................................................................

 iter      E             dE          RMSdq      gap      omega  full diag
   1    -32.0770541 -0.320771E+02  0.410E-02    3.63       0.0  T
   2    -32.0770541 -0.817096E-07  0.241E-02    3.63       1.0  T
   3    -32.0770541  0.211262E-07  0.205E-03    3.63       9.6  T
   4    -32.0770542 -0.459614E-07  0.589E-04    3.63      33.3  T
   5    -32.0770542 -0.159316E-08  0.325E-04    3.63      60.3  T
   6    -32.0770542 -0.141394E-08  0.127E-04    3.63     154.5  T
   7    -32.0770542 -0.425615E-10  0.394E-05    3.63     498.0  T
   8    -32.0770542 -0.238387E-10  0.131E-05    3.63    1502.4  T
   9    -32.0770542 -0.139977E-11  0.506E-06    3.63    3878.9  T
  10    -32.0770542 -0.710543E-13  0.186E-06    3.63   10546.2  T
     SCC iter.                  ...        0 min,  0.074 sec
     gradient                   ...        0 min,  0.002 sec
 * total energy  :   -31.5558154 Eh     change       -0.1588135E-04 Eh
   gradient norm :     0.0008482 Eh/α   predicted    -0.7471446E-05 ( -52.95%)
   displ. norm   :     0.1214039 α      lambda        0.0000000E+00
   maximum displ.:     0.0817847 α      in ANC's #1, #3, #9, ...

........................................................................
.............................. CYCLE   12 ..............................
........................................................................

 iter      E             dE          RMSdq      gap      omega  full diag
   1    -32.0769487 -0.320769E+02  0.410E-02    3.63       0.0  T
   2    -32.0769488 -0.741994E-07  0.241E-02    3.63       1.0  T
   3    -32.0769488  0.204886E-07  0.191E-03    3.63      10.3  T
   4    -32.0769488 -0.444314E-07  0.569E-04    3.63      34.5  T
   5    -32.0769488 -0.194164E-08  0.290E-04    3.63      67.5  T
   6    -32.0769488 -0.109705E-08  0.122E-04    3.63     160.4  T
   7    -32.0769488 -0.384262E-10  0.367E-05    3.63     534.3  T
   8    -32.0769488 -0.207550E-10  0.110E-05    3.63    1790.9  T
   9    -32.0769488 -0.959233E-12  0.469E-06    3.63    4179.1  T
  10    -32.0769488 -0.191847E-12  0.179E-06    3.63   10978.0  T
     SCC iter.                  ...        0 min,  0.075 sec
     gradient                   ...        0 min,  0.002 sec
 * total energy  :   -31.5558194 Eh     change       -0.4006397E-05 Eh
   gradient norm :     0.0011572 Eh/α   predicted    -0.1342926E-08 ( -99.97%)
   displ. norm   :     0.0310144 α      lambda       -0.5991420E-05
   maximum displ.:     0.0178820 α      in ANC's #1, #4, #5, ...

........................................................................
.............................. CYCLE   13 ..............................
........................................................................

 iter      E             dE          RMSdq      gap      omega  full diag
   1    -32.0769015 -0.320769E+02  0.142E-02    3.63       0.0  T
   2    -32.0769016 -0.688756E-07  0.817E-03    3.63       2.4  T
   3    -32.0769015  0.148181E-07  0.177E-03    3.63      11.1  T
   4    -32.0769016 -0.203308E-07  0.545E-04    3.63      36.0  T
   5    -32.0769016 -0.270470E-08  0.182E-04    3.63     108.0  T
   6    -32.0769016 -0.768559E-09  0.887E-05    3.63     221.1  T
   7    -32.0769016 -0.358256E-10  0.407E-05    3.63     482.4  T
   8    -32.0769016 -0.320455E-11  0.116E-05    3.63    1696.0  T
   9    -32.0769016 -0.144240E-11  0.342E-06    3.63    5728.9  T
  10    -32.0769016 -0.710543E-13  0.935E-07    3.63   20982.5  T
     SCC iter.                  ...        0 min,  0.074 sec
     gradient                   ...        0 min,  0.002 sec
 * total energy  :   -31.5558251 Eh     change       -0.5681071E-05 Eh
   gradient norm :     0.0005949 Eh/α   predicted    -0.2999530E-05 ( -47.20%)
   displ. norm   :     0.0400885 α      lambda       -0.6464898E-05
   maximum displ.:     0.0185249 α      in ANC's #9, #3, #7, ...

........................................................................
.............................. CYCLE   14 ..............................
........................................................................

 iter      E             dE          RMSdq      gap      omega  full diag
   1    -32.0775039 -0.320775E+02  0.126E-02    3.63       0.0  T
   2    -32.0775040 -0.670384E-07  0.763E-03    3.63       2.6  T
   3    -32.0775040  0.951271E-08  0.179E-03    3.63      10.9  T
   4    -32.0775040 -0.179494E-07  0.394E-04    3.63      49.8  T
   5    -32.0775040 -0.739561E-09  0.235E-04    3.63      83.5  T
   6    -32.0775040 -0.410829E-09  0.104E-04    3.63     189.4  T
   7    -32.0775040 -0.467608E-10  0.343E-05    3.63     570.9  T
   8    -32.0775040  0.845546E-12  0.144E-05    3.63    1359.3  T
   9    -32.0775040 -0.241585E-11  0.525E-06    3.63    3738.3  T
  10    -32.0775040 -0.156319E-12  0.231E-06    3.63    8502.6  T
     SCC iter.                  ...        0 min,  0.075 sec
     gradient                   ...        0 min,  0.002 sec
 * total energy  :   -31.5558303 Eh     change       -0.5200443E-05 Eh
   gradient norm :     0.0008401 Eh/α   predicted    -0.3235981E-05 ( -37.77%)
   displ. norm   :     0.0314644 α      lambda       -0.4062241E-05
   maximum displ.:     0.0199753 α      in ANC's #1, #4, #10, ...

........................................................................
.............................. CYCLE   15 ..............................
........................................................................

 iter      E             dE          RMSdq      gap      omega  full diag
   1    -32.0771681 -0.320772E+02  0.135E-02    3.63       0.0  T
   2    -32.0771682 -0.497537E-07  0.781E-03    3.63       2.5  T
   3    -32.0771682  0.112895E-07  0.126E-03    3.63      15.6  T
   4    -32.0771682 -0.134561E-07  0.641E-04    3.63      30.6  T
   5    -32.0771682 -0.524142E-08  0.171E-04    3.63     114.8  T
   6    -32.0771682 -0.306315E-10  0.847E-05    3.63     231.7  T
   7    -32.0771682 -0.755804E-10  0.292E-05    3.63     671.2  T
   8    -32.0771682 -0.227374E-11  0.741E-06    3.63    2645.2  T
   9    -32.0771682 -0.426326E-12  0.401E-06    3.63    4896.2  T
     SCC iter.                  ...        0 min,  0.077 sec
     gradient                   ...        0 min,  0.002 sec
 * total energy  :   -31.5558335 Eh     change       -0.3214652E-05 Eh
   gradient norm :     0.0007197 Eh/α   predicted    -0.2035825E-05 ( -36.67%)
   displ. norm   :     0.0212272 α      lambda       -0.2499146E-05
   maximum displ.:     0.0175528 α      in ANC's #1, #3, #9, ...

........................................................................
.............................. CYCLE   16 ..............................
........................................................................

 iter      E             dE          RMSdq      gap      omega  full diag
   1    -32.0770669 -0.320771E+02  0.750E-03    3.63       0.0  T
   2    -32.0770669 -0.685465E-08  0.445E-03    3.63       4.4  T
   3    -32.0770669  0.152100E-08  0.514E-04    3.63      38.1  T
   4    -32.0770669 -0.241682E-08  0.164E-04    3.63     119.5  T
   5    -32.0770669 -0.269480E-09  0.691E-05    3.63     283.8  T
   6    -32.0770669 -0.693205E-10  0.286E-05    3.63     686.2  T
   7    -32.0770669 -0.206768E-11  0.109E-05    3.63    1797.3  T
   8    -32.0770669 -0.710543E-12  0.533E-06    3.63    3681.5  T
   9    -32.0770669 -0.135003E-12  0.262E-06    3.63    7479.1  T
     SCC iter.                  ...        0 min,  0.076 sec
     gradient                   ...        0 min,  0.002 sec
 * total energy  :   -31.5558368 Eh     change       -0.3300380E-05 Eh
   gradient norm :     0.0004862 Eh/α   predicted    -0.1252822E-05 ( -62.04%)
   displ. norm   :     0.0359543 α      lambda       -0.3711682E-05
   maximum displ.:     0.0272983 α      in ANC's #1, #3, #5, ...

........................................................................
.............................. CYCLE   17 ..............................
........................................................................

 iter      E             dE          RMSdq      gap      omega  full diag
   1    -32.0771282 -0.320771E+02  0.120E-02    3.63       0.0  T
   2    -32.0771282 -0.143915E-07  0.712E-03    3.63       2.8  T
   3    -32.0771282  0.712495E-08  0.894E-04    3.63      21.9  T
   4    -32.0771282 -0.969948E-08  0.258E-04    3.63      76.0  T
   5    -32.0771282 -0.634259E-09  0.120E-04    3.63     163.1  T
   6    -32.0771282 -0.216559E-09  0.456E-05    3.63     429.7  T
   7    -32.0771282 -0.267875E-11  0.158E-05    3.63    1237.4  T
   8    -32.0771282 -0.286349E-11  0.700E-06    3.63    2803.4  T
   9    -32.0771282 -0.305533E-12  0.279E-06    3.63    7027.1  T
     SCC iter.                  ...        0 min,  0.074 sec
     gradient                   ...        0 min,  0.002 sec
 * total energy  :   -31.5558412 Eh     change       -0.4350219E-05 Eh
   gradient norm :     0.0002891 Eh/α   predicted    -0.1859367E-05 ( -57.26%)
   displ. norm   :     0.0376861 α      lambda       -0.2746217E-05
   maximum displ.:     0.0306079 α      in ANC's #1, #3, #5, ...

........................................................................
.............................. CYCLE   18 ..............................
........................................................................

 iter      E             dE          RMSdq      gap      omega  full diag
   1    -32.0771233 -0.320771E+02  0.132E-02    3.63       0.0  T
   2    -32.0771233 -0.130913E-07  0.778E-03    3.63       2.5  T
   3    -32.0771233  0.451884E-08  0.696E-04    3.63      28.2  T
   4    -32.0771233 -0.626596E-08  0.321E-04    3.63      61.2  T
   5    -32.0771233 -0.130795E-08  0.874E-05    3.63     224.3  T
   6    -32.0771233 -0.733564E-10  0.406E-05    3.63     482.7  T
   7    -32.0771233 -0.311218E-11  0.828E-06    3.63    2367.6  T
   8    -32.0771233 -0.355271E-12  0.344E-06    3.63    5706.8  T
     SCC iter.                  ...        0 min,  0.074 sec
     gradient                   ...        0 min,  0.002 sec
 * total energy  :   -31.5558446 Eh     change       -0.3434744E-05 Eh
   gradient norm :     0.0004087 Eh/α   predicted    -0.1376315E-05 ( -59.93%)
   displ. norm   :     0.0302104 α      lambda       -0.2062288E-05
   maximum displ.:     0.0256683 α      in ANC's #1, #5, #4, ...

........................................................................
.............................. CYCLE   19 ..............................
........................................................................

 iter      E             dE          RMSdq      gap      omega  full diag
   1    -32.0770991 -0.320771E+02  0.111E-02    3.63       0.0  T
   2    -32.0770992 -0.110544E-07  0.654E-03    3.63       3.0  T
   3    -32.0770991  0.246398E-08  0.668E-04    3.63      29.4  T
   4    -32.0770992 -0.420410E-08  0.250E-04    3.63      78.4  T
   5    -32.0770992 -0.601680E-09  0.811E-05    3.63     241.8  T
   6    -32.0770992 -0.874110E-10  0.383E-05    3.63     512.2  T
   7    -32.0770992 -0.332534E-11  0.621E-06    3.63    3160.1  T
   8    -32.0770992 -0.333955E-12  0.247E-06    3.63    7952.4  T
     SCC iter.                  ...        0 min,  0.073 sec
     gradient                   ...        0 min,  0.002 sec
 * total energy  :   -31.5558475 Eh     change       -0.2854960E-05 Eh
   gradient norm :     0.0003762 Eh/α   predicted    -0.1034887E-05 ( -63.75%)
   displ. norm   :     0.0281781 α      lambda       -0.2127129E-05
   maximum displ.:     0.0247970 α      in ANC's #1, #4, #5, ...

........................................................................
.............................. CYCLE   20 ..............................
........................................................................

 iter      E             dE          RMSdq      gap      omega  full diag
   1    -32.0771221 -0.320771E+02  0.114E-02    3.63       0.0  T
   2    -32.0771221 -0.982790E-08  0.674E-03    3.63       2.9  T
   3    -32.0771221  0.191984E-08  0.673E-04    3.63      29.1  T
   4    -32.0771221 -0.372073E-08  0.201E-04    3.63      97.5  T
   5    -32.0771221 -0.311310E-09  0.738E-05    3.63     265.7  T
   6    -32.0771221 -0.931664E-10  0.332E-05    3.63     590.9  T
   7    -32.0771221 -0.235900E-11  0.795E-06    3.63    2465.4  T
   8    -32.0771221 -0.220268E-12  0.294E-06    3.63    6660.0  T
     SCC iter.                  ...        0 min,  0.074 sec
     gradient                   ...        0 min,  0.002 sec
 * total energy  :   -31.5558505 Eh     change       -0.3027435E-05 Eh
   gradient norm :     0.0002625 Eh/α   predicted    -0.1067079E-05 ( -64.75%)
   displ. norm   :     0.0329505 α      lambda       -0.2473499E-05
   maximum displ.:     0.0280389 α      in ANC's #1, #2, #4, ...
 * RMSD in coord.:     0.2606788 α      energy gain  -0.3781526E-02 Eh

generating ANC from model Hessian ...
Using Lindh-Hessian (1995)
 Shifting diagonal of input Hessian by   9.310720783867686E-003
 Lowest  eigenvalues of input Hessian
    0.000000    0.000000    0.000000    0.000000    0.000000    0.000000
    0.010000    0.010468    0.010928    0.011298    0.012232    0.013151
    0.015185    0.017775    0.018319    0.019700    0.024452    0.025186
 Highest eigenvalues
    1.364877    1.553551    1.575670    1.879612    1.987297    2.006224
 

........................................................................
.............................. CYCLE   21 ..............................
........................................................................

 iter      E             dE          RMSdq      gap      omega  full diag
   1    -32.0771611 -0.320772E+02  0.136E-02    3.63       0.0  T
   2    -32.0771611 -0.101492E-07  0.801E-03    3.63       2.4  T
   3    -32.0771611  0.202666E-08  0.659E-04    3.63      29.7  T
   4    -32.0771611 -0.449183E-08  0.217E-04    3.63      90.5  T
   5    -32.0771611 -0.487255E-09  0.935E-05    3.63     209.8  T
   6    -32.0771611 -0.139103E-09  0.428E-05    3.63     458.0  T
   7    -32.0771611 -0.240163E-11  0.101E-05    3.63    1932.4  T
   8    -32.0771611 -0.111555E-11  0.337E-06    3.63    5820.2  T
   9    -32.0771611 -0.198952E-12  0.118E-06    3.63   16582.7  T
     SCC iter.                  ...        0 min,  0.074 sec
     gradient                   ...        0 min,  0.005 sec
 * total energy  :   -31.5558539 Eh     change       -0.3436736E-05 Eh
   gradient norm :     0.0001602 Eh/α   predicted     0.0000000E+00 (-100.00%)
   displ. norm   :     0.0173153 α      lambda       -0.3722220E-07
   maximum displ.:     0.0165051 α      in ANC's #1, #2, #4, ...

........................................................................
.............................. CYCLE   22 ..............................
........................................................................

 iter      E             dE          RMSdq      gap      omega  full diag
   1    -32.0771733 -0.320772E+02  0.660E-03    3.63       0.0  T
   2    -32.0771733 -0.238215E-08  0.386E-03    3.63       5.1  T
   3    -32.0771733  0.605965E-09  0.327E-04    3.63      59.9  T
   4    -32.0771733 -0.107980E-08  0.114E-04    3.63     172.0  T
   5    -32.0771733 -0.170616E-09  0.474E-05    3.63     413.7  T
   6    -32.0771733 -0.354490E-10  0.188E-05    3.63    1041.2  T
   7    -32.0771733 -0.895284E-12  0.589E-06    3.63    3331.7  T
   8    -32.0771733 -0.191847E-12  0.203E-06    3.63    9668.4  T
     SCC iter.                  ...        0 min,  0.076 sec
     gradient                   ...        0 min,  0.002 sec
 * total energy  :   -31.5558559 Eh     change       -0.1962435E-05 Eh
   gradient norm :     0.0001436 Eh/α   predicted    -0.6944964E-06 ( -64.61%)
   displ. norm   :     0.0205899 α      lambda       -0.1503464E-05
   maximum displ.:     0.0183860 α      in ANC's #1, #2, #4, ...

........................................................................
.............................. CYCLE   23 ..............................
........................................................................

 iter      E             dE          RMSdq      gap      omega  full diag
   1    -32.0771708 -0.320772E+02  0.773E-03    3.63       0.0  T
   2    -32.0771708 -0.283409E-08  0.457E-03    3.63       4.3  T
   3    -32.0771708  0.691116E-09  0.421E-04    3.63      46.6  T
   4    -32.0771708 -0.162790E-08  0.861E-05    3.63     227.7  T
   5    -32.0771708 -0.244782E-10  0.534E-05    3.63     367.0  T
   6    -32.0771708 -0.303189E-10  0.236E-05    3.63     832.4  T
   7    -32.0771708 -0.255085E-11  0.529E-06    3.63    3705.8  T
   8    -32.0771708 -0.355271E-13  0.280E-06    3.63    6997.6  T
     SCC iter.                  ...        0 min,  0.082 sec
     gradient                   ...        0 min,  0.002 sec
 * total energy  :   -31.5558580 Eh     change       -0.2137100E-05 Eh
   gradient norm :     0.0001418 Eh/α   predicted    -0.7521450E-06 ( -64.81%)
   displ. norm   :     0.0237337 α      lambda       -0.1592452E-05
   maximum displ.:     0.0206123 α      in ANC's #1, #2, #3, ...

........................................................................
.............................. CYCLE   24 ..............................
........................................................................

 iter      E             dE          RMSdq      gap      omega  full diag
   1    -32.0771712 -0.320772E+02  0.910E-03    3.63       0.0  T
   2    -32.0771712 -0.468764E-08  0.535E-03    3.63       3.7  T
   3    -32.0771712  0.494381E-09  0.376E-04    3.63      52.2  T
   4    -32.0771712 -0.151453E-08  0.149E-04    3.63     132.0  T
   5    -32.0771712 -0.279073E-09  0.531E-05    3.63     369.6  T
   6    -32.0771712 -0.324221E-10  0.259E-05    3.63     757.5  T
   7    -32.0771712 -0.180478E-11  0.730E-06    3.63    2686.7  T
   8    -32.0771712 -0.490274E-12  0.263E-06    3.63    7466.0  T
     SCC iter.                  ...        0 min,  0.075 sec
     gradient                   ...        0 min,  0.002 sec
 * total energy  :   -31.5558603 Eh     change       -0.2274179E-05 Eh
   gradient norm :     0.0001205 Eh/α   predicted    -0.8000018E-06 ( -64.82%)
   displ. norm   :     0.0264192 α      lambda       -0.1674542E-05
   maximum displ.:     0.0225145 α      in ANC's #1, #2, #3, ...

........................................................................
.............................. CYCLE   25 ..............................
........................................................................

 iter      E             dE          RMSdq      gap      omega  full diag
   1    -32.0771747 -0.320772E+02  0.103E-02    3.63       0.0  T
   2    -32.0771747 -0.553906E-08  0.608E-03    3.63       3.2  T
   3    -32.0771747  0.196399E-08  0.555E-04    3.63      35.3  T
   4    -32.0771747 -0.356007E-08  0.152E-04    3.63     128.9  T
   5    -32.0771747 -0.210818E-09  0.699E-05    3.63     280.7  T
   6    -32.0771747 -0.640696E-10  0.311E-05    3.63     631.3  T
   7    -32.0771747 -0.309086E-11  0.876E-06    3.63    2239.4  T
   8    -32.0771747 -0.532907E-12  0.354E-06    3.63    5547.7  T
     SCC iter.                  ...        0 min,  0.074 sec
     gradient                   ...        0 min,  0.002 sec
 * total energy  :   -31.5558627 Eh     change       -0.2403111E-05 Eh
   gradient norm :     0.0001256 Eh/α   predicted    -0.8408541E-06 ( -65.01%)
   displ. norm   :     0.0290064 α      lambda       -0.1790095E-05
   maximum displ.:     0.0243797 α      in ANC's #1, #2, #3, ...

........................................................................
.............................. CYCLE   26 ..............................
........................................................................

 iter      E             dE          RMSdq      gap      omega  full diag
   1    -32.0771636 -0.320772E+02  0.116E-02    3.63       0.0  T
   2    -32.0771636 -0.861544E-08  0.679E-03    3.63       2.9  T
   3    -32.0771636  0.344229E-08  0.606E-04    3.63      32.4  T
   4    -32.0771636 -0.508058E-08  0.241E-04    3.63      81.5  T
   5    -32.0771636 -0.868575E-09  0.804E-05    3.63     243.8  T
   6    -32.0771636 -0.837446E-10  0.341E-05    3.63     574.6  T
   7    -32.0771636 -0.675016E-12  0.113E-05    3.63    1736.2  T
   8    -32.0771636 -0.157740E-11  0.334E-06    3.63    5865.3  T
   9    -32.0771636 -0.184741E-12  0.113E-06    3.63   17421.1  T
     SCC iter.                  ...        0 min,  0.074 sec
     gradient                   ...        0 min,  0.002 sec
 * total energy  :   -31.5558653 Eh     change       -0.2546243E-05 Eh
   gradient norm :     0.0001320 Eh/α   predicted    -0.8999108E-06 ( -64.66%)
   displ. norm   :     0.0314869 α      lambda       -0.1880346E-05
   maximum displ.:     0.0263232 α      in ANC's #1, #2, #3, ...

........................................................................
.............................. CYCLE   27 ..............................
........................................................................

 iter      E             dE          RMSdq      gap      omega  full diag
   1    -32.0771684 -0.320772E+02  0.126E-02    3.63       0.0  T
   2    -32.0771684 -0.952548E-08  0.741E-03    3.63       2.6  T
   3    -32.0771684  0.424375E-08  0.739E-04    3.63      26.5  T
   4    -32.0771684 -0.656483E-08  0.225E-04    3.63      87.1  T
   5    -32.0771684 -0.560476E-09  0.923E-05    3.63     212.4  T
   6    -32.0771684 -0.137092E-09  0.359E-05    3.63     545.7  T
   7    -32.0771684 -0.157030E-11  0.111E-05    3.63    1768.9  T
   8    -32.0771684 -0.134293E-11  0.398E-06    3.63    4927.2  T
   9    -32.0771684 -0.227374E-12  0.121E-06    3.63   16216.8  T
     SCC iter.                  ...        0 min,  0.089 sec
     gradient                   ...        0 min,  0.002 sec
 * total energy  :   -31.5558680 Eh     change       -0.2706787E-05 Eh
   gradient norm :     0.0001124 Eh/α   predicted    -0.9410781E-06 ( -65.23%)
   displ. norm   :     0.0318422 α      lambda       -0.1856334E-05
   maximum displ.:     0.0270399 α      in ANC's #1, #2, #4, ...

........................................................................
.............................. CYCLE   28 ..............................
........................................................................

 iter      E             dE          RMSdq      gap      omega  full diag
   1    -32.0771746 -0.320772E+02  0.128E-02    3.63       0.0  T
   2    -32.0771746 -0.831315E-08  0.755E-03    3.63       2.6  T
   3    -32.0771746  0.535162E-08  0.761E-04    3.63      25.8  T
   4    -32.0771746 -0.777497E-08  0.198E-04    3.63      99.0  T
   5    -32.0771746 -0.480433E-09  0.912E-05    3.63     215.0  T
   6    -32.0771746 -0.110916E-09  0.394E-05    3.63     498.4  T
   7    -32.0771746 -0.165556E-11  0.101E-05    3.63    1939.7  T
   8    -32.0771746 -0.155609E-11  0.297E-06    3.63    6600.6  T
   9    -32.0771746 -0.639488E-13  0.117E-06    3.63   16791.4  T
     SCC iter.                  ...        0 min,  0.081 sec
     gradient                   ...        0 min,  0.002 sec
 * total energy  :   -31.5558707 Eh     change       -0.2690335E-05 Eh
   gradient norm :     0.0001106 Eh/α   predicted    -0.9287712E-06 ( -65.48%)
   displ. norm   :     0.0294870 α      lambda       -0.1716236E-05
   maximum displ.:     0.0256794 α      in ANC's #1, #2, #5, ...

........................................................................
.............................. CYCLE   29 ..............................
........................................................................

 iter      E             dE          RMSdq      gap      omega  full diag
   1    -32.0771817 -0.320772E+02  0.119E-02    3.63       0.0  T
   2    -32.0771817 -0.822249E-08  0.703E-03    3.63       2.8  T
   3    -32.0771817  0.328488E-08  0.643E-04    3.63      30.5  T
   4    -32.0771817 -0.512452E-08  0.211E-04    3.63      92.9  T
   5    -32.0771817 -0.567063E-09  0.823E-05    3.63     238.3  T
   6    -32.0771817 -0.101373E-09  0.350E-05    3.63     560.4  T
   7    -32.0771817 -0.383693E-12  0.926E-06    3.63    2117.1  T
   8    -32.0771817 -0.144240E-11  0.268E-06    3.63    7315.7  T
     SCC iter.                  ...        0 min,  0.075 sec
     gradient                   ...        0 min,  0.002 sec
 * total energy  :   -31.5558732 Eh     change       -0.2497932E-05 Eh
   gradient norm :     0.0001085 Eh/α   predicted    -0.8595160E-06 ( -65.59%)
   displ. norm   :     0.0262623 α      lambda       -0.1541192E-05
   maximum displ.:     0.0235550 α      in ANC's #1, #2, #5, ...

........................................................................
.............................. CYCLE   30 ..............................
........................................................................

 iter      E             dE          RMSdq      gap      omega  full diag
   1    -32.0771847 -0.320772E+02  0.106E-02    3.63       0.0  T
   2    -32.0771847 -0.614238E-08  0.624E-03    3.63       3.1  T
   3    -32.0771847  0.292085E-08  0.593E-04    3.63      33.1  T
   4    -32.0771847 -0.441482E-08  0.176E-04    3.63     111.3  T
   5    -32.0771847 -0.383814E-09  0.739E-05    3.63     265.3  T
   6    -32.0771847 -0.814921E-10  0.302E-05    3.63     649.5  T
   7    -32.0771847 -0.149214E-12  0.841E-06    3.63    2331.4  T
   8    -32.0771847 -0.119371E-11  0.232E-06    3.63    8446.5  T
     SCC iter.                  ...        0 min,  0.074 sec
     gradient                   ...        0 min,  0.002 sec
 * total energy  :   -31.5558754 Eh     change       -0.2276330E-05 Eh
   gradient norm :     0.0001055 Eh/α   predicted    -0.7722202E-06 ( -66.08%)
   displ. norm   :     0.0231391 α      lambda       -0.1390019E-05
   maximum displ.:     0.0213116 α      in ANC's #1, #5, #2, ...

........................................................................
.............................. CYCLE   31 ..............................
........................................................................

 iter      E             dE          RMSdq      gap      omega  full diag
   1    -32.0771942 -0.320772E+02  0.926E-03    3.63       0.0  T
   2    -32.0771942 -0.540364E-08  0.546E-03    3.63       3.6  T
   3    -32.0771942  0.142173E-08  0.483E-04    3.63      40.6  T
   4    -32.0771942 -0.251777E-08  0.167E-04    3.63     117.6  T
   5    -32.0771942 -0.302578E-09  0.602E-05    3.63     325.6  T
   6    -32.0771942 -0.564100E-10  0.262E-05    3.63     749.8  T
   7    -32.0771942 -0.341061E-12  0.652E-06    3.63    3008.4  T
   8    -32.0771942 -0.589750E-12  0.213E-06    3.63    9194.2  T
     SCC iter.                  ...        0 min,  0.073 sec
     gradient                   ...        0 min,  0.002 sec
 * total energy  :   -31.5558775 Eh     change       -0.2068937E-05 Eh
   gradient norm :     0.0001035 Eh/α   predicted    -0.6971504E-06 ( -66.30%)
   displ. norm   :     0.0208667 α      lambda       -0.1281497E-05
   maximum displ.:     0.0195491 α      in ANC's #1, #5, #9, ...

........................................................................
.............................. CYCLE   32 ..............................
........................................................................

 iter      E             dE          RMSdq      gap      omega  full diag
   1    -32.0771940 -0.320772E+02  0.820E-03    3.63       0.0  T
   2    -32.0771940 -0.378610E-08  0.484E-03    3.63       4.0  T
   3    -32.0771940  0.121918E-08  0.423E-04    3.63      46.3  T
   4    -32.0771940 -0.207658E-08  0.140E-04    3.63     140.4  T
   5    -32.0771940 -0.204700E-09  0.502E-05    3.63     390.8  T
   6    -32.0771940 -0.382059E-10  0.216E-05    3.63     908.4  T
   7    -32.0771940 -0.397904E-12  0.507E-06    3.63    3870.9  T
   8    -32.0771940 -0.298428E-12  0.176E-06    3.63   11114.6  T
     SCC iter.                  ...        0 min,  0.074 sec
     gradient                   ...        0 min,  0.002 sec
 * total energy  :   -31.5558794 Eh     change       -0.1903209E-05 Eh
   gradient norm :     0.0001008 Eh/α   predicted    -0.6424584E-06 ( -66.24%)
   displ. norm   :     0.0195202 α      lambda       -0.1203237E-05
   maximum displ.:     0.0184771 α      in ANC's #1, #5, #9, ...

........................................................................
.............................. CYCLE   33 ..............................
........................................................................

 iter      E             dE          RMSdq      gap      omega  full diag
   1    -32.0772013 -0.320772E+02  0.747E-03    3.63       0.0  T
   2    -32.0772013 -0.391415E-08  0.441E-03    3.63       4.4  T
   3    -32.0772013  0.939735E-09  0.391E-04    3.63      50.2  T
   4    -32.0772013 -0.163225E-08  0.149E-04    3.63     131.7  T
   5    -32.0772013 -0.248903E-09  0.451E-05    3.63     435.0  T
   6    -32.0772013 -0.315339E-10  0.208E-05    3.63     944.4  T
   7    -32.0772013 -0.646594E-12  0.458E-06    3.63    4277.5  T
   8    -32.0772013 -0.213163E-12  0.205E-06    3.63    9558.1  T
     SCC iter.                  ...        0 min,  0.079 sec
     gradient                   ...        0 min,  0.002 sec
 * total energy  :   -31.5558812 Eh     change       -0.1778004E-05 Eh
   gradient norm :     0.0000987 Eh/α   predicted    -0.6026527E-06 ( -66.11%)
   displ. norm   :     0.0185833 α      lambda       -0.1125287E-05
   maximum displ.:     0.0177065 α      in ANC's #1, #5, #9, ...

........................................................................
.............................. CYCLE   34 ..............................
........................................................................

 iter      E             dE          RMSdq      gap      omega  full diag
   1    -32.0771984 -0.320772E+02  0.708E-03    3.63       0.0  T
   2    -32.0771984 -0.264026E-08  0.419E-03    3.63       4.7  T
   3    -32.0771984  0.880576E-09  0.355E-04    3.63      55.3  T
   4    -32.0771984 -0.150842E-08  0.118E-04    3.63     166.6  T
   5    -32.0771984 -0.142329E-09  0.413E-05    3.63     475.0  T
   6    -32.0771984 -0.254801E-10  0.184E-05    3.63    1068.5  T
   7    -32.0771984 -0.554223E-12  0.358E-06    3.63    5475.4  T
   8    -32.0771984 -0.781597E-13  0.162E-06    3.63   12081.6  T
     SCC iter.                  ...        0 min,  0.075 sec
     gradient                   ...        0 min,  0.002 sec
 * total energy  :   -31.5558828 Eh     change       -0.1656011E-05 Eh
   gradient norm :     0.0000969 Eh/α   predicted    -0.5634644E-06 ( -65.97%)
   displ. norm   :     0.0174341 α      lambda       -0.1028601E-05
   maximum displ.:     0.0167850 α      in ANC's #1, #5, #9, ...

........................................................................
.............................. CYCLE   35 ..............................
........................................................................

 iter      E             dE          RMSdq      gap      omega  full diag
   1    -32.0772030 -0.320772E+02  0.654E-03    3.63       0.0  T
   2    -32.0772030 -0.317479E-08  0.386E-03    3.63       5.1  T
   3    -32.0772030  0.114878E-08  0.383E-04    3.63      51.2  T
   4    -32.0772030 -0.169537E-08  0.134E-04    3.63     146.3  T
   5    -32.0772030 -0.221512E-09  0.431E-05    3.63     454.6  T
   6    -32.0772030 -0.318963E-10  0.187E-05    3.63    1050.4  T
   7    -32.0772030 -0.333955E-12  0.596E-06    3.63    3288.9  T
   8    -32.0772030 -0.333955E-12  0.235E-06    3.63    8339.9  T
     SCC iter.                  ...        0 min,  0.074 sec
     gradient                   ...        0 min,  0.002 sec
 * total energy  :   -31.5558844 Eh     change       -0.1514678E-05 Eh
   gradient norm :     0.0000933 Eh/α   predicted    -0.5151953E-06 ( -65.99%)
   displ. norm   :     0.0160948 α      lambda       -0.9226126E-06
   maximum displ.:     0.0156809 α      in ANC's #1, #5, #9, ...

........................................................................
.............................. CYCLE   36 ..............................
........................................................................

 iter      E             dE          RMSdq      gap      omega  full diag
   1    -32.0772032 -0.320772E+02  0.613E-03    3.63       0.0  T
   2    -32.0772032 -0.216924E-08  0.361E-03    3.63       5.4  T
   3    -32.0772032  0.534747E-09  0.297E-04    3.63      66.1  T
   4    -32.0772032 -0.986226E-09  0.109E-04    3.63     179.3  T
   5    -32.0772032 -0.132061E-09  0.355E-05    3.63     553.1  T
   6    -32.0772032 -0.192486E-10  0.161E-05    3.63    1217.5  T
   7    -32.0772032 -0.447642E-12  0.363E-06    3.63    5404.0  T
   8    -32.0772032 -0.355271E-13  0.184E-06    3.63   10661.8  T
     SCC iter.                  ...        0 min,  0.074 sec
     gradient                   ...        0 min,  0.002 sec
 * total energy  :   -31.5558857 Eh     change       -0.1369984E-05 Eh
   gradient norm :     0.0000898 Eh/α   predicted    -0.4624157E-06 ( -66.25%)
   displ. norm   :     0.0148409 α      lambda       -0.8391865E-06
   maximum displ.:     0.0146042 α      in ANC's #1, #5, #12, ...

........................................................................
.............................. CYCLE   37 ..............................
........................................................................

 iter      E             dE          RMSdq      gap      omega  full diag
   1    -32.0772049 -0.320772E+02  0.573E-03    3.63       0.0  T
   2    -32.0772049 -0.196792E-08  0.339E-03    3.63       5.8  T
   3    -32.0772049  0.783558E-09  0.335E-04    3.63      58.6  T
   4    -32.0772049 -0.124700E-08  0.903E-05    3.63     217.2  T
   5    -32.0772049 -0.802984E-10  0.373E-05    3.63     526.2  T
   6    -32.0772049 -0.252882E-10  0.158E-05    3.63    1240.0  T
   7    -32.0772049 -0.362377E-12  0.447E-06    3.63    4390.7  T
   8    -32.0772049 -0.156319E-12  0.202E-06    3.63    9704.7  T
     SCC iter.                  ...        0 min,  0.074 sec
     gradient                   ...        0 min,  0.002 sec
 * total energy  :   -31.5558870 Eh     change       -0.1249935E-05 Eh
   gradient norm :     0.0000884 Eh/α   predicted    -0.4208036E-06 ( -66.33%)
   displ. norm   :     0.0139691 α      lambda       -0.7851424E-06
   maximum displ.:     0.0138172 α      in ANC's #1, #5, #4, ...

........................................................................
.............................. CYCLE   38 ..............................
........................................................................

 iter      E             dE          RMSdq      gap      omega  full diag
   1    -32.0772066 -0.320772E+02  0.549E-03    3.63       0.0  T
   2    -32.0772066 -0.182752E-08  0.323E-03    3.63       6.1  T
   3    -32.0772066  0.390408E-09  0.279E-04    3.63      70.2  T
   4    -32.0772066 -0.782130E-09  0.930E-05    3.63     210.8  T
   5    -32.0772066 -0.849383E-10  0.329E-05    3.63     595.6  T
   6    -32.0772066 -0.182254E-10  0.146E-05    3.63    1340.5  T
   7    -32.0772066 -0.341061E-12  0.316E-06    3.63    6206.5  T
   8    -32.0772066 -0.710543E-14  0.153E-06    3.63   12784.8  T
     SCC iter.                  ...        0 min,  0.074 sec
     gradient                   ...        0 min,  0.002 sec
 * total energy  :   -31.5558882 Eh     change       -0.1173928E-05 Eh
   gradient norm :     0.0000860 Eh/α   predicted    -0.3934100E-06 ( -66.49%)
   displ. norm   :     0.0138247 α      lambda       -0.7732828E-06
   maximum displ.:     0.0135972 α      in ANC's #1, #2, #4, ...

........................................................................
.............................. CYCLE   39 ..............................
........................................................................

 iter      E             dE          RMSdq      gap      omega  full diag
   1    -32.0772078 -0.320772E+02  0.554E-03    3.63       0.0  T
   2    -32.0772078 -0.169387E-08  0.327E-03    3.63       6.0  T
   3    -32.0772078  0.488910E-09  0.310E-04    3.63      63.3  T
   4    -32.0772078 -0.927805E-09  0.772E-05    3.63     253.9  T
   5    -32.0772078 -0.430944E-10  0.354E-05    3.63     553.7  T
   6    -32.0772078 -0.216929E-10  0.154E-05    3.63    1270.2  T
   7    -32.0772078 -0.333955E-12  0.302E-06    3.63    6486.3  T
   8    -32.0772078 -0.710543E-13  0.137E-06    3.63   14345.1  T
     SCC iter.                  ...        0 min,  0.079 sec
     gradient                   ...        0 min,  0.002 sec
 * total energy  :   -31.5558893 Eh     change       -0.1155277E-05 Eh
   gradient norm :     0.0000849 Eh/α   predicted    -0.3870930E-06 ( -66.49%)
   displ. norm   :     0.0142625 α      lambda       -0.7886737E-06
   maximum displ.:     0.0138589 α      in ANC's #1, #2, #4, ...

........................................................................
.............................. CYCLE   40 ..............................
........................................................................

 iter      E             dE          RMSdq      gap      omega  full diag
   1    -32.0772090 -0.320772E+02  0.577E-03    3.63       0.0  T
   2    -32.0772090 -0.190241E-08  0.341E-03    3.63       5.8  T
   3    -32.0772090  0.405500E-09  0.310E-04    3.63      63.2  T
   4    -32.0772090 -0.877101E-09  0.845E-05    3.63     232.2  T
   5    -32.0772090 -0.518057E-10  0.364E-05    3.63     539.2  T
   6    -32.0772090 -0.219060E-10  0.162E-05    3.63    1207.9  T
   7    -32.0772090 -0.497380E-12  0.276E-06    3.63    7110.3  T
   8    -32.0772090  0.426326E-13  0.102E-06    3.63   19256.7  T
     SCC iter.                  ...        0 min,  0.075 sec
     gradient                   ...        0 min,  0.002 sec
 * total energy  :   -31.5558905 Eh     change       -0.1177152E-05 Eh
   gradient norm :     0.0000833 Eh/α   predicted    -0.3945717E-06 ( -66.48%)
   displ. norm   :     0.0151313 α      lambda       -0.8215458E-06
   maximum displ.:     0.0144780 α      in ANC's #1, #2, #4, ...

........................................................................
.............................. CYCLE   41 ..............................
........................................................................

 iter      E             dE          RMSdq      gap      omega  full diag
   1    -32.0772101 -0.320772E+02  0.618E-03    3.63       0.0  T
   2    -32.0772101 -0.209792E-08  0.364E-03    3.63       5.4  T
   3    -32.0772101  0.519201E-09  0.346E-04    3.63      56.7  T
   4    -32.0772101 -0.107567E-08  0.848E-05    3.63     231.3  T
   5    -32.0772101 -0.439684E-10  0.409E-05    3.63     479.5  T
   6    -32.0772101 -0.274412E-10  0.182E-05    3.63    1076.8  T
   7    -32.0772101 -0.575540E-12  0.326E-06    3.63    6025.0  T
   8    -32.0772101 -0.142109E-13  0.125E-06    3.63   15636.6  T
     SCC iter.                  ...        0 min,  0.074 sec
     gradient                   ...        0 min,  0.002 sec
 * total energy  :   -31.5558917 Eh     change       -0.1221532E-05 Eh
   gradient norm :     0.0000818 Eh/α   predicted    -0.4109209E-06 ( -66.36%)
   displ. norm   :     0.0162260 α      lambda       -0.8470906E-06
   maximum displ.:     0.0153377 α      in ANC's #1, #2, #4, ...

........................................................................
.............................. CYCLE   42 ..............................
........................................................................

 iter      E             dE          RMSdq      gap      omega  full diag
   1    -32.0772099 -0.320772E+02  0.664E-03    3.63       0.0  T
   2    -32.0772099 -0.244803E-08  0.391E-03    3.63       5.0  T
   3    -32.0772099  0.552340E-09  0.365E-04    3.63      53.8  T
   4    -32.0772099 -0.119191E-08  0.942E-05    3.63     208.3  T
   5    -32.0772099 -0.571347E-10  0.439E-05    3.63     446.6  T
   6    -32.0772099 -0.312639E-10  0.198E-05    3.63     989.9  T
   7    -32.0772099 -0.682121E-12  0.392E-06    3.63    5005.1  T
   8    -32.0772099 -0.994760E-13  0.152E-06    3.63   12940.3  T
     SCC iter.                  ...        0 min,  0.074 sec
     gradient                   ...        0 min,  0.002 sec
 * total energy  :   -31.5558930 Eh     change       -0.1273667E-05 Eh
   gradient norm :     0.0000802 Eh/α   predicted    -0.4274699E-06 ( -66.44%)
   displ. norm   :     0.0169731 α      lambda       -0.8664363E-06
   maximum displ.:     0.0159268 α      in ANC's #1, #2, #4, ...
 * RMSD in coord.:     0.0858671 α      energy gain  -0.4247350E-04 Eh

generating ANC from model Hessian ...
Using Lindh-Hessian (1995)
 Shifting diagonal of input Hessian by   9.296540616679179E-003
 Lowest  eigenvalues of input Hessian
    0.000000    0.000000    0.000000    0.000000    0.000000    0.000000
    0.010000    0.010420    0.010888    0.011299    0.012227    0.013132
    0.015145    0.017769    0.018304    0.019676    0.024430    0.025011
 Highest eigenvalues
    1.364823    1.553349    1.575865    1.879878    1.987340    2.006140
 

........................................................................
.............................. CYCLE   43 ..............................
........................................................................

 iter      E             dE          RMSdq      gap      omega  full diag
   1    -32.0772111 -0.320772E+02  0.695E-03    3.63       0.0  T
   2    -32.0772111 -0.261236E-08  0.410E-03    3.63       4.8  T
   3    -32.0772111  0.662212E-09  0.387E-04    3.63      50.6  T
   4    -32.0772111 -0.136985E-08  0.959E-05    3.63     204.5  T
   5    -32.0772111 -0.573621E-10  0.471E-05    3.63     416.4  T
   6    -32.0772111 -0.356977E-10  0.213E-05    3.63     922.7  T
   7    -32.0772111 -0.660805E-12  0.421E-06    3.63    4662.5  T
   8    -32.0772111 -0.191847E-12  0.156E-06    3.63   12597.1  T
     SCC iter.                  ...        0 min,  0.074 sec
     gradient                   ...        0 min,  0.002 sec
 * total energy  :   -31.5558943 Eh     change       -0.1292753E-05 Eh
   gradient norm :     0.0000791 Eh/α   predicted     0.0000000E+00 (-100.00%)
   displ. norm   :     0.0118019 α      lambda       -0.1239876E-07
   maximum displ.:     0.0117863 α      in ANC's #1, #2, #3, ...

........................................................................
.............................. CYCLE   44 ..............................
........................................................................

 iter      E             dE          RMSdq      gap      omega  full diag
   1    -32.0772170 -0.320772E+02  0.459E-03    3.63       0.0  T
   2    -32.0772170 -0.143633E-08  0.269E-03    3.63       7.3  T
   3    -32.0772170  0.178737E-09  0.219E-04    3.63      89.8  T
   4    -32.0772170 -0.402721E-09  0.926E-05    3.63     211.9  T
   5    -32.0772170 -0.113666E-09  0.278E-05    3.63     705.9  T
   6    -32.0772170 -0.122711E-10  0.128E-05    3.63    1530.9  T
   7    -32.0772170 -0.220268E-12  0.340E-06    3.63    5762.9  T
   8    -32.0772170 -0.781597E-13  0.145E-06    3.63   13535.7  T
     SCC iter.                  ...        0 min,  0.074 sec
     gradient                   ...        0 min,  0.002 sec
 * total energy  :   -31.5558952 Eh     change       -0.9089599E-06 Eh
   gradient norm :     0.0000885 Eh/α   predicted    -0.3097861E-06 ( -65.92%)
   displ. norm   :     0.0119901 α      lambda       -0.6161656E-06
   maximum displ.:     0.0118269 α      in ANC's #1, #2, #4, ...

........................................................................
.............................. CYCLE   45 ..............................
........................................................................

 iter      E             dE          RMSdq      gap      omega  full diag
   1    -32.0772159 -0.320772E+02  0.482E-03    3.63       0.0  T
   2    -32.0772159 -0.113787E-08  0.286E-03    3.63       6.9  T
   3    -32.0772159  0.523464E-09  0.302E-04    3.63      64.9  T
   4    -32.0772159 -0.891561E-09  0.544E-05    3.63     360.5  T
   5    -32.0772159 -0.103029E-10  0.317E-05    3.63     618.3  T
   6    -32.0772159 -0.155680E-10  0.129E-05    3.63    1514.7  T
   7    -32.0772159 -0.319744E-12  0.280E-06    3.63    6997.6  T
   8    -32.0772159  0.000000E+00  0.120E-06    3.63   16312.7  T
     SCC iter.                  ...        0 min,  0.080 sec
     gradient                   ...        0 min,  0.002 sec
 * total energy  :   -31.5558961 Eh     change       -0.9166883E-06 Eh
   gradient norm :     0.0000802 Eh/α   predicted    -0.3089582E-06 ( -66.30%)
   displ. norm   :     0.0127874 α      lambda       -0.6442460E-06
   maximum displ.:     0.0123655 α      in ANC's #1, #2, #4, ...

........................................................................
.............................. CYCLE   46 ..............................
........................................................................

 iter      E             dE          RMSdq      gap      omega  full diag
   1    -32.0772136 -0.320772E+02  0.525E-03    3.63       0.0  T
   2    -32.0772136 -0.150452E-08  0.310E-03    3.63       6.3  T
   3    -32.0772136  0.500940E-09  0.290E-04    3.63      67.7  T
   4    -32.0772136 -0.893984E-09  0.807E-05    3.63     243.0  T
   5    -32.0772136 -0.558202E-10  0.351E-05    3.63     559.3  T
   6    -32.0772136 -0.180052E-10  0.150E-05    3.63    1303.4  T
   7    -32.0772136 -0.191847E-12  0.373E-06    3.63    5255.9  T
   8    -32.0772136 -0.156319E-12  0.134E-06    3.63   14685.6  T
     SCC iter.                  ...        0 min,  0.075 sec
     gradient                   ...        0 min,  0.002 sec
 * total energy  :   -31.5558971 Eh     change       -0.9540903E-06 Eh
   gradient norm :     0.0000787 Eh/α   predicted    -0.3227930E-06 ( -66.17%)
   displ. norm   :     0.0137863 α      lambda       -0.6772477E-06
   maximum displ.:     0.0130624 α      in ANC's #1, #2, #4, ...

........................................................................
.............................. CYCLE   47 ..............................
........................................................................

 iter      E             dE          RMSdq      gap      omega  full diag
   1    -32.0772203 -0.320772E+02  0.570E-03    3.63       0.0  T
   2    -32.0772203 -0.225676E-08  0.335E-03    3.63       5.8  T
   3    -32.0772203  0.517062E-09  0.331E-04    3.63      59.3  T
   4    -32.0772203 -0.100042E-08  0.102E-04    3.63     193.2  T
   5    -32.0772203 -0.773781E-10  0.395E-05    3.63     496.7  T
   6    -32.0772203 -0.262830E-10  0.162E-05    3.63    1213.3  T
   7    -32.0772203 -0.362377E-12  0.437E-06    3.63    4485.1  T
   8    -32.0772203 -0.135003E-12  0.186E-06    3.63   10561.2  T
     SCC iter.                  ...        0 min,  0.074 sec
     gradient                   ...        0 min,  0.002 sec
 * total energy  :   -31.5558981 Eh     change       -0.9975620E-06 Eh
   gradient norm :     0.0000804 Eh/α   predicted    -0.3393599E-06 ( -65.98%)
   displ. norm   :     0.0146816 α      lambda       -0.6997412E-06
   maximum displ.:     0.0137291 α      in ANC's #1, #2, #4, ...

........................................................................
.............................. CYCLE   48 ..............................
........................................................................

 iter      E             dE          RMSdq      gap      omega  full diag
   1    -32.0772182 -0.320772E+02  0.602E-03    3.63       0.0  T
   2    -32.0772182 -0.222249E-08  0.355E-03    3.63       5.5  T
   3    -32.0772182  0.770605E-09  0.332E-04    3.63      59.0  T
   4    -32.0772182 -0.126535E-08  0.105E-04    3.63     187.5  T
   5    -32.0772182 -0.120792E-09  0.416E-05    3.63     471.4  T
   6    -32.0772182 -0.284288E-10  0.180E-05    3.63    1092.0  T
   7    -32.0772182 -0.135003E-12  0.478E-06    3.63    4100.2  T
   8    -32.0772182 -0.412115E-12  0.154E-06    3.63   12737.6  T
     SCC iter.                  ...        0 min,  0.074 sec
     gradient                   ...        0 min,  0.002 sec
 * total energy  :   -31.5558991 Eh     change       -0.1036241E-05 Eh
   gradient norm :     0.0000772 Eh/α   predicted    -0.3511912E-06 ( -66.11%)
   displ. norm   :     0.0151100 α      lambda       -0.7009757E-06
   maximum displ.:     0.0139971 α      in ANC's #1, #2, #4, ...

........................................................................
.............................. CYCLE   49 ..............................
........................................................................

 iter      E             dE          RMSdq      gap      omega  full diag
   1    -32.0772159 -0.320772E+02  0.616E-03    3.63       0.0  T
   2    -32.0772159 -0.212135E-08  0.363E-03    3.63       5.4  T
   3    -32.0772159  0.789193E-09  0.344E-04    3.63      57.1  T
   4    -32.0772159 -0.132399E-08  0.101E-04    3.63     194.8  T
   5    -32.0772159 -0.103398E-09  0.432E-05    3.63     453.8  T
   6    -32.0772159 -0.295515E-10  0.187E-05    3.63    1050.7  T
   7    -32.0772159 -0.341061E-12  0.470E-06    3.63    4173.9  T
   8    -32.0772159 -0.348166E-12  0.140E-06    3.63   14020.9  T
     SCC iter.                  ...        0 min,  0.073 sec
     gradient                   ...        0 min,  0.002 sec
 * total energy  :   -31.5559001 Eh     change       -0.1039709E-05 Eh
   gradient norm :     0.0000760 Eh/α   predicted    -0.3516661E-06 ( -66.18%)
   displ. norm   :     0.0151982 α      lambda       -0.6925766E-06
   maximum displ.:     0.0140281 α      in ANC's #1, #2, #5, ...

........................................................................
.............................. CYCLE   50 ..............................
........................................................................

 iter      E             dE          RMSdq      gap      omega  full diag
   1    -32.0772205 -0.320772E+02  0.609E-03    3.63       0.0  T
   2    -32.0772205 -0.220352E-08  0.359E-03    3.63       5.5  T
   3    -32.0772205  0.495206E-09  0.313E-04    3.63      62.7  T
   4    -32.0772205 -0.999236E-09  0.994E-05    3.63     197.4  T
   5    -32.0772205 -0.973372E-10  0.394E-05    3.63     498.2  T
   6    -32.0772205 -0.250111E-10  0.170E-05    3.63    1156.1  T
   7    -32.0772205 -0.135003E-12  0.411E-06    3.63    4769.5  T
   8    -32.0772205 -0.277112E-12  0.134E-06    3.63   14629.6  T
     SCC iter.                  ...        0 min,  0.079 sec
     gradient                   ...        0 min,  0.002 sec
 * total energy  :   -31.5559012 Eh     change       -0.1026752E-05 Eh
   gradient norm :     0.0000741 Eh/α   predicted    -0.3465856E-06 ( -66.24%)
   displ. norm   :     0.0151862 α      lambda       -0.6770512E-06
   maximum displ.:     0.0139824 α      in ANC's #1, #2, #5, ...

........................................................................
.............................. CYCLE   51 ..............................
........................................................................

 iter      E             dE          RMSdq      gap      omega  full diag
   1    -32.0772216 -0.320772E+02  0.603E-03    3.63       0.0  T
   2    -32.0772216 -0.182017E-08  0.356E-03    3.63       5.5  T
   3    -32.0772216  0.737124E-09  0.327E-04    3.63      60.0  T
   4    -32.0772217 -0.125358E-08  0.891E-05    3.63     220.2  T
   5    -32.0772217 -0.797229E-10  0.403E-05    3.63     486.1  T
   6    -32.0772217 -0.242508E-10  0.174E-05    3.63    1130.0  T
   7    -32.0772217 -0.326850E-12  0.464E-06    3.63    4223.6  T
   8    -32.0772217 -0.298428E-12  0.138E-06    3.63   14207.5  T
[...]
         :: total charge               0.000000000000 e     ::
         :::::::::::::::::::::::::::::::::::::::::::::::::::::

           ------------------------------------------------- 
          |                Numerical Hessian                |
           ------------------------------------------------- 
step length          :   0.00500
SCC accuracy         :   0.30000
Hessian scale factor :   1.00000
frozen atoms in %    :   0.00000    0
RMS gradient         :   0.00004
estimated CPU  time      0.99 min
estimated wall time      0.12 min

writing file <hessian>.

 projected vibrational frequencies (cm⁻¹)
eigval :       -0.00    -0.00    -0.00    -0.00     0.00     0.00
eigval :       24.97    72.20    84.26   127.22   130.39   200.63
eigval :      204.66   228.75   262.46   277.59   283.55   358.23
eigval :      362.91   404.33   473.56   585.98   638.03   656.84
eigval :      683.19   704.30   729.79   746.44   791.03   870.67
eigval :      894.03   924.90   931.03   968.48   974.82   998.73
eigval :     1012.89  1021.94  1065.68  1073.33  1086.16  1115.59
eigval :     1123.69  1181.98  1203.67  1225.79  1227.56  1251.96
eigval :     1266.75  1282.76  1316.82  1408.76  1410.76  1421.70
eigval :     1451.15  1456.47  1461.99  1497.21  1501.22  1505.26
eigval :     1508.04  1577.24  1588.95  2938.67  2942.16  2948.79
eigval :     2961.36  3011.07  3013.12  3024.68  3024.80  3035.13
eigval :     3039.49  3061.11  3068.53  3074.94  3087.11  3093.93
           -------------------------------------------------
          |                Property Printout                |
           -------------------------------------------------

    * Orbital Energies and Occupations

         #    Occupation            Energy/Eh            Energy/eV
      -------------------------------------------------------------
         1        2.0000           -0.6587632             -17.9259
       ...           ...                  ...                  ...
        18        2.0000           -0.4769627             -12.9788
        19        2.0000           -0.4739097             -12.8957
        20        2.0000           -0.4691091             -12.7651
        21        2.0000           -0.4616943             -12.5633
        22        2.0000           -0.4526820             -12.3181
        23        2.0000           -0.4452341             -12.1154
        24        2.0000           -0.4394284             -11.9575
        25        2.0000           -0.4248121             -11.5597
        26        2.0000           -0.4141590             -11.2698
        27        2.0000           -0.4080522             -11.1037
        28        2.0000           -0.4026954             -10.9579
        29        2.0000           -0.4007845             -10.9059
        30        2.0000           -0.3633714              -9.8878 (HOMO)
        31                         -0.2298133              -6.2535 (LUMO)
        32                         -0.2214796              -6.0268
        33                         -0.1549440              -4.2162
        34                         -0.1495593              -4.0697
        35                         -0.0932687              -2.5380
        36                          0.0121689               0.3311
        37                          0.0427797               1.1641
        38                          0.1036481               2.8204
        39                          0.1126651               3.0658
        40                          0.1169546               3.1825
        41                          0.1314341               3.5765
       ...                                ...                  ...
        64                          0.7992730              21.7493
      -------------------------------------------------------------
                  HL-Gap            0.1335581 Eh            3.6343 eV
             Fermi-level           -0.2965923 Eh           -8.0707 eV

     #   Z          covCN         q      C6AA      α(0)
     1  15 P        3.014    -0.112   165.315    23.098
     2   6 C        3.748    -0.045    21.450     6.606
     3   1 H        0.925     0.047     2.363     2.404
     4   1 H        0.926     0.040     2.443     2.444
     5   6 C        3.816    -0.097    22.334     6.726
     6   1 H        0.925     0.037     2.487     2.466
     7   1 H        0.925     0.041     2.432     2.439
     8   1 H        0.925     0.032     2.555     2.499
     9   6 C        2.915     0.010    27.792     8.645
    10   6 C        3.015    -0.030    28.734     8.793
    11   6 C        2.964    -0.034    28.833     8.808
    12   6 C        2.918    -0.030    28.757     8.794
    13   6 C        2.919    -0.031    28.765     8.795
    14   6 C        2.920    -0.031    28.779     8.797
    15   1 H        0.925     0.034     2.535     2.490
    16   1 H        0.926     0.033     2.550     2.497
    17   1 H        0.926     0.029     2.606     2.524
    18   1 H        0.926     0.028     2.617     2.530
    19   1 H        0.926     0.028     2.612     2.527
    20   6 C        3.748    -0.044    21.429     6.603
    21   1 H        0.926     0.041     2.436     2.441
    22   1 H        0.926     0.042     2.427     2.436
    23   6 C        3.780    -0.094    22.321     6.731
    24   1 H        0.925     0.038     2.478     2.462
    25   1 H        0.925     0.038     2.481     2.463
    26   1 H        0.925     0.032     2.561     2.503

 Mol. C6AA /au·bohr⁶  :       7601.502125
 Mol. C8AA /au·bohr⁸  :     202609.010097
 Mol. α(0) /au        :        139.520655


Wiberg/Mayer (AO) data.
largest (>0.10) Wiberg bond orders for each atom

 ---------------------------------------------------------------------------
     #   Z sym  total        # sym  WBO       # sym  WBO       # sym  WBO
 ---------------------------------------------------------------------------
     1  15 P    3.379 --     2 C    1.026     9 C    1.020    20 C    1.015
     2   6 C    3.995 --     1 P    1.026     5 C    1.015     4 H    0.956
                             3 H    0.951
     3   1 H    0.998 --     2 C    0.951
     4   1 H    0.998 --     2 C    0.956
     5   6 C    3.996 --     2 C    1.015     8 H    0.984     7 H    0.984
                             6 H    0.984
     6   1 H    0.999 --     5 C    0.984
     7   1 H    0.998 --     5 C    0.984
     8   1 H    0.999 --     5 C    0.984
     9   6 C    3.981 --    11 C    1.401    10 C    1.389     1 P    1.020
                            14 C    0.105
    10   6 C    3.992 --    12 C    1.456     9 C    1.389    15 H    0.962
                            13 C    0.109
    11   6 C    3.993 --    13 C    1.441     9 C    1.401    16 H    0.963
                            12 C    0.107
    12   6 C    3.992 --    10 C    1.456    14 C    1.428    17 H    0.970
                            11 C    0.107
    13   6 C    3.993 --    11 C    1.441    14 C    1.441    18 H    0.970
                            10 C    0.109
    14   6 C    3.991 --    13 C    1.441    12 C    1.428    19 H    0.971
                             9 C    0.105
    15   1 H    0.999 --    10 C    0.962
    16   1 H    0.999 --    11 C    0.963
    17   1 H    0.999 --    12 C    0.970
    18   1 H    0.999 --    13 C    0.970
    19   1 H    0.999 --    14 C    0.971
    20   6 C    3.994 --     1 P    1.015    23 C    1.012    21 H    0.956
                            22 H    0.954
    21   1 H    0.998 --    20 C    0.956
    22   1 H    0.998 --    20 C    0.954
    23   6 C    3.997 --    20 C    1.012    24 H    0.984    26 H    0.983
                            25 H    0.983
    24   1 H    0.999 --    23 C    0.984
    25   1 H    0.999 --    23 C    0.983
    26   1 H    0.999 --    23 C    0.983
 ---------------------------------------------------------------------------

Topologies differ in total number of bonds
Writing topology from bond orders to xtbtopo.mol

molecular dipole:
                 x           y           z       tot (Debye)
 q only:        0.196      -0.059      -0.287
   full:        0.415       0.143      -0.496       1.684
molecular quadrupole (traceless):
                xx          xy          yy          xz          yz          zz
 q only:        0.359      -1.039      -2.343      -2.346       0.864       1.983
  q+dip:        2.243      -0.781      -2.956      -2.945       0.147       0.713
   full:        1.002      -0.918      -3.785      -3.850       0.014       2.782

           -------------------------------------------------
          |                Geometry Summary                 |
           -------------------------------------------------

      molecular mass/u    :      166.2002322
   center of mass at/Å    :        2.0126813       1.0860864      -3.2430327
  moments of inertia/u·Å² :        0.2869828E+03   0.8187066E+03   0.9332698E+03
rotational constants/cm⁻¹ :        0.5874092E-01   0.2059057E-01   0.1806298E-01

 * 23 selected distances

     #   Z          #   Z                                           value/Å
     2   6 C        3   1 H                                       1.0926162
     2   6 C        4   1 H                                       1.0939759
     2   6 C        5   6 C                                       1.5232841 (max)
     5   6 C        6   1 H                                       1.0876799
     5   6 C        7   1 H                                       1.0885168
     5   6 C        8   1 H                                       1.0890469
     9   6 C       10   6 C                                       1.3938292
     9   6 C       11   6 C                                       1.3901489
    10   6 C       12   6 C                                       1.3810990
    11   6 C       13   6 C                                       1.3843646
    12   6 C       14   6 C                                       1.3855018
    13   6 C       14   6 C                                       1.3835853
    10   6 C       15   1 H                                       1.0814209
    11   6 C       16   1 H                                       1.0793021 (min)
    12   6 C       17   1 H                                       1.0806544
    13   6 C       18   1 H                                       1.0808480
    14   6 C       19   1 H                                       1.0801398
    20   6 C       21   1 H                                       1.0935088
    20   6 C       22   1 H                                       1.0933748
    20   6 C       23   6 C                                       1.5221870
    23   6 C       24   1 H                                       1.0872081
    23   6 C       25   1 H                                       1.0887168
    23   6 C       26   1 H                                       1.0891723

 * 2 distinct bonds (by element types)

   Z      Z             #   av. dist./Å        max./Å        min./Å
   1 H    6 C          15     1.0870788     1.0939759     1.0793021
   6 C    6 C           8     1.4205000     1.5232841     1.3810990

           -------------------------------------------------
          |               Frequency Printout                |
           -------------------------------------------------
 projected vibrational frequencies (cm⁻¹)
eigval :       -0.00    -0.00    -0.00    -0.00     0.00     0.00
eigval :       24.97    72.20    84.26   127.22   130.39   200.63
eigval :      204.66   228.75   262.46   277.59   283.55   358.23
eigval :      362.91   404.33   473.56   585.98   638.03   656.84
eigval :      683.19   704.30   729.79   746.44   791.03   870.67
eigval :      894.03   924.90   931.03   968.48   974.82   998.73
eigval :     1012.89  1021.94  1065.68  1073.33  1086.16  1115.59
eigval :     1123.69  1181.98  1203.67  1225.79  1227.56  1251.96
eigval :     1266.75  1282.76  1316.82  1408.76  1410.76  1421.70
eigval :     1451.15  1456.47  1461.99  1497.21  1501.22  1505.26
eigval :     1508.04  1577.24  1588.95  2938.67  2942.16  2948.79
eigval :     2961.36  3011.07  3013.12  3024.68  3024.80  3035.13
eigval :     3039.49  3061.11  3068.53  3074.94  3087.11  3093.93
 reduced masses (amu)
   1: 15.97   2: 13.25   3:  9.85   4: 12.02   5: 13.28   6: 13.33   7:  9.86   8:  9.58
   9:  9.30  10:  7.35  11:  9.62  12:  8.34  13:  2.43  14:  9.57  15:  6.25  16:  9.93
  17: 11.40  18: 13.85  19:  9.03  20: 18.97  21: 13.19  22: 11.18  23: 13.82  24: 10.53
  25: 12.53  26: 15.73  27:  4.47  28:  5.43  29:  4.01  30:  3.33  31:  3.58  32:  4.15
  33:  2.97  34: 10.05  35:  3.73  36:  3.15  37:  3.74  38:  3.90  39:  9.49  40:  9.32
  41:  8.40  42:  8.45  43:  4.45  44:  1.30  45:  1.98  46:  3.65  47:  3.31  48:  4.14
  49:  4.16  50:  3.36  51: 11.91  52:  2.96  53:  2.93  54:  8.60  55:  4.77  56:  2.09
  57:  5.28  58:  1.55  59:  1.55  60:  1.54  61:  1.56  62: 11.42  63: 11.44  64:  1.99
  65:  1.97  66:  1.48  67:  1.50  68:  1.86  69:  1.87  70:  1.75  71:  1.82  72:  1.44
  73:  1.55  74:  1.78  75:  1.77  76:  1.84  77:  1.88  78:  1.87
 IR intensities (km·mol⁻¹)
   1:  0.05   2:  0.01   3:  0.20   4:  0.13   5:  0.03   6:  0.10   7:  0.10   8:  0.11
   9:  0.22  10:  0.69  11:  0.20  12:  0.07  13:  0.09  14:  0.12  15:  0.14  16:  0.26
  17:  0.36  18:  0.38  19:  0.04  20:  1.65  21:  4.49  22:  0.05  23: 10.67  24:  3.27
  25:  0.11  26: 26.70  27: 33.59  28: 19.23  29: 20.09  30:  0.17  31:  0.01  32:  0.03
  33:  0.01  34:  2.02  35:  1.27  36:  2.40  37:  1.83  38:  8.37  39:  9.91  40:  7.50
  41:  0.05  42:  1.10  43:  0.09  44:  0.02  45:  0.79  46:  2.37  47:  3.85  48:  4.09
  49:  5.21  50:  0.19  51:  0.39  52:  1.64  53:  1.95  54:  0.77  55:  0.95  56:  1.15
  57:  0.03  58:  3.63  59:  0.64  60:  1.07  61:  1.05  62:  0.47  63:  5.78  64: 22.75
  65: 20.35  66: 10.27  67: 21.89  68: 51.30  69: 51.68  70:  9.36  71: 43.57  72: 24.79
  73: 21.44  74: 12.88  75:  5.31  76: 53.97  77: 77.41  78: 27.13
 Raman intensities (Ä⁴*amu⁻¹)
   1:  0.00   2:  0.00   3:  0.00   4:  0.00   5:  0.00   6:  0.00   7:  0.00   8:  0.00
   9:  0.00  10:  0.00  11:  0.00  12:  0.00  13:  0.00  14:  0.00  15:  0.00  16:  0.00
  17:  0.00  18:  0.00  19:  0.00  20:  0.00  21:  0.00  22:  0.00  23:  0.00  24:  0.00
  25:  0.00  26:  0.00  27:  0.00  28:  0.00  29:  0.00  30:  0.00  31:  0.00  32:  0.00
  33:  0.00  34:  0.00  35:  0.00  36:  0.00  37:  0.00  38:  0.00  39:  0.00  40:  0.00
  41:  0.00  42:  0.00  43:  0.00  44:  0.00  45:  0.00  46:  0.00  47:  0.00  48:  0.00
  49:  0.00  50:  0.00  51:  0.00  52:  0.00  53:  0.00  54:  0.00  55:  0.00  56:  0.00
  57:  0.00  58:  0.00  59:  0.00  60:  0.00  61:  0.00  62:  0.00  63:  0.00  64:  0.00
  65:  0.00  66:  0.00  67:  0.00  68:  0.00  69:  0.00  70:  0.00  71:  0.00  72:  0.00
  73:  0.00  74:  0.00  75:  0.00  76:  0.00  77:  0.00  78:  0.00
 output can be read by thermo (or use thermo option).
 writing <g98.out> molden fake output.
 recommended (thermochemical) frequency scaling factor: 1.0
           -------------------------------------------------
          |             Thermodynamic Functions             |
           -------------------------------------------------

Refinement of some symmetry elements was terminated before convergence was reached.
Some symmetry elements may remain unidentified.
Molecule has no symmetry elements
It seems to be the C1 point group
c1  symmetry found (for desy threshold:  0.10E+00) used in thermo

          ...................................................
          :                      SETUP                      :
          :.................................................:
          :  # frequencies                          72      :
          :  # imaginary freq.                       0      :
          :  linear?                             false      :
          :  only rotor calc.                    false      :
          :  symmetry                               c1      :
          :  rotational number                       1      :
          :  scaling factor                  1.0000000      :
          :  rotor cutoff                   50.0000000 cm⁻¹ :
          :  imag. cutoff                  -20.0000000 cm⁻¹ :
          :.................................................:

    mode    ω/cm⁻¹     T·S(HO)/kcal·mol⁻¹    T·S(FR)/kcal·mol⁻¹   T·S(vib)
   ------------------------------------------------------------------------
       1     24.97    -1.84669 (  5.85%)    -1.26199 ( 94.15%)    -1.29621
       2     72.20    -1.22018 ( 81.30%)    -0.94761 ( 18.70%)    -1.16921
       3     84.26    -1.12969 ( 88.97%)    -0.90184 ( 11.03%)    -1.10456
       4    127.22    -0.89075 ( 97.67%)    -0.77983 (  2.33%)    -0.88816
       5    130.39    -0.87662 ( 97.88%)    -0.77253 (  2.12%)    -0.87442
       6    200.63    -0.63425 ( 99.62%)    -0.64490 (  0.38%)    -0.63429
       7    204.66    -0.62337 ( 99.65%)    -0.63901 (  0.35%)    -0.62343
       8    228.75    -0.56311 ( 99.77%)    -0.60604 (  0.23%)    -0.56321
       9    262.46    -0.49056 ( 99.87%)    -0.56533 (  0.13%)    -0.49066
      10    277.59    -0.46169 ( 99.89%)    -0.54873 (  0.11%)    -0.46178
      11    283.55    -0.45086 ( 99.90%)    -0.54244 (  0.10%)    -0.45094
   ------------------------------------------------------------------------

   temp. (K)  partition function   enthalpy   heat capacity  entropy
                                   cal/mol     cal/K/mol   cal/K/mol   J/K/mol
 298.15  VIB  0.122E+05             6086.380     39.517     36.996
         ROT  0.113E+07              888.752      2.981     30.681
         INT  0.138E+11             6975.132     42.498     67.677
         TR   0.207E+28             1481.254      4.968     41.214
         TOT                        8456.3862    47.4660   108.8909   455.5996

       T/K    H(0)-H(T)+PV         H(T)/Eh          T*S/Eh         G(T)/Eh
   ------------------------------------------------------------------------
    298.15    0.134761E-01    0.232554E+00    0.517376E-01    0.180817E+00
   ------------------------------------------------------------------------

         :::::::::::::::::::::::::::::::::::::::::::::::::::::
         ::                  THERMODYNAMIC                  ::
         :::::::::::::::::::::::::::::::::::::::::::::::::::::
         :: total free energy         -31.375107080188 Eh   ::
         ::.................................................::
         :: total energy              -31.555923766476 Eh   ::
         :: zero point energy           0.219078163257 Eh   ::
         :: G(RRHO) w/o ZPVE           -0.038261476969 Eh   ::
         :: G(RRHO) contrib.            0.180816686287 Eh   ::
         :::::::::::::::::::::::::::::::::::::::::::::::::::::

optimized geometry written to: xtbopt.xyz


           -------------------------------------------------
          | TOTAL ENERGY              -31.555923766476 Eh   |
          | TOTAL ENTHALPY            -31.323369494048 Eh   |
          | TOTAL FREE ENERGY         -31.375107080188 Eh   |
          | GRADIENT NORM               0.000037857078 Eh/α |
          | HOMO-LUMO GAP               3.634300474248 eV   |
           -------------------------------------------------

------------------------------------------------------------------------
 * finished run on 2025/07/14 at 11:26:59.084     
------------------------------------------------------------------------
 total:
 * wall-time:     0 d,  0 h,  0 min, 12.876 sec
 *  cpu-time:     0 d,  0 h,  2 min, 21.498 sec
 * ratio c/w:    10.990 speedup
 SCF:
 * wall-time:     0 d,  0 h,  0 min,  0.088 sec
 *  cpu-time:     0 d,  0 h,  0 min,  1.050 sec
 * ratio c/w:    11.970 speedup
 ANC optimizer:
 * wall-time:     0 d,  0 h,  0 min,  9.653 sec
 *  cpu-time:     0 d,  0 h,  1 min, 54.823 sec
 * ratio c/w:    11.895 speedup
 analytical hessian:
 * wall-time:     0 d,  0 h,  0 min,  3.125 sec
 *  cpu-time:     0 d,  0 h,  0 min, 25.524 sec
 * ratio c/w:     8.168 speedup

