      -----------------------------------------------------------      
     |                   =====================                   |     
     |                           x T B                           |     
     |                   =====================                   |     
     |                         S. Grimme                         |     
     |          Mulliken Center for Theoretical Chemistry        |     
     |                    University of Bonn                     |     
      -----------------------------------------------------------      

   * xtb version 6.7.0 (08769fc) compiled by 'albert@albert-system' on 2024-03-04

   xtb is free software: you can redistribute it and/or modify it under
   the terms of the GNU Lesser General Public License as published by
   the Free Software Foundation, either version 3 of the License, or
   (at your option) any later version.
   
   xtb is distributed in the hope that it will be useful,
   but WITHOUT ANY WARRANTY; without even the implied warranty of
   MERCHANTABILITY or FITNESS FOR A PARTICULAR PURPOSE.  See the
   GNU Lesser General Public License for more details.
   
   Cite this work as:
   * C. Bannwarth, E. Caldeweyher, S. Ehlert, A. Hansen, P. Pracht,
     J. Seibert, S. Spicher, S. Grimme, WIREs Comput. Mol. Sci., 2020, 11,
     e01493. DOI: 10.1002/wcms.1493
   
   for GFN2-xTB:
   * C. Bannwarth, S. Ehlert and S. Grimme., J. Chem. Theory Comput., 2019,
     15, 1652-1671. DOI: 10.1021/acs.jctc.8b01176
   for GFN1-xTB:
   * S. Grimme, C. Bannwarth, P. Shushkov, J. Chem. Theory Comput., 2017,
     13, 1989-2009. DOI: 10.1021/acs.jctc.7b00118
   for GFN0-xTB:
   * P. Pracht, E. Caldeweyher, S. Ehlert, S. Grimme, ChemRxiv, 2019, preprint.
     DOI: 10.26434/chemrxiv.8326202.v1
   for GFN-FF:
   * S. Spicher and S. Grimme, Angew. Chem. Int. Ed., 2020, 59, 15665-15673.
     DOI: 10.1002/anie.202004239
   
   for ALPB and GBSA implicit solvation:
   * S. Ehlert, M. Stahn, S. Spicher, S. Grimme, J. Chem. Theory Comput.,
     2021, 17, 4250-4261. DOI: 10.1021/acs.jctc.1c00471
   
   for ddCOSMO and CPCM-X implicit solvation:
   * M. Stahn, S. Ehlert, S. Grimme, J. Phys. Chem. A,
     2023, XX, XXXX-XXXX. DOI: 10.1021/acs.jpca.3c04382
   
   for DFT-D4:
   * E. Caldeweyher, C. Bannwarth and S. Grimme, J. Chem. Phys., 2017,
     147, 034112. DOI: 10.1063/1.4993215
   * E. Caldeweyher, S. Ehlert, A. Hansen, H. Neugebauer, S. Spicher,
     C. Bannwarth and S. Grimme, J. Chem. Phys., 2019, 150, 154122.
     DOI: 10.1063/1.5090222
   * E. Caldeweyher, J.-M. Mewes, S. Ehlert and S. Grimme, Phys. Chem. Chem. Phys.
     2020, 22, 8499-8512. DOI: 10.1039/D0CP00502A
   
   for sTDA-xTB:
   * S. Grimme and C. Bannwarth, J. Chem. Phys., 2016, 145, 054103.
     DOI: 10.1063/1.4959605
   
   in the mass-spec context:
   * V. Asgeirsson, C. Bauer and S. Grimme, Chem. Sci., 2017, 8, 4879.
     DOI: 10.1039/c7sc00601b
   * J. Koopman and S. Grimme, ACS Omega 2019, 4, 12, 15120-15133.
     DOI: 10.1021/acsomega.9b02011
   
   for metadynamics refer to:
   * S. Grimme, J. Chem. Theory Comput., 2019, 155, 2847-2862
     DOI: 10.1021/acs.jctc.9b00143
   
   for SPH calculations refer to:
   * S. Spicher and S. Grimme, J. Chem. Theory Comput., 2021, 17, 1701-1714
     DOI: 10.1021/acs.jctc.0c01306
   
   for ONIOM refer to:
   * C. Plett, A. Katbashev, S. Ehlert, S. Grimme, M. Bursch,
     Phys. Chem. Chem. Phys., 2023, 25, 17860-17868. DOI: 10.1039/D3CP02178E
   
   for DIPRO refer to:
   * J. Kohn, N. Gildemeister, S. Grimme, D. Fazzi, A. Hansen,
     J. Chem. Phys., 2023, just accepted.
   
   for PTB refer to:
   * S. Grimme, M. Mueller, A. Hansen, J. Chem. Phys., 2023, 158, 124111.
     DOI: 10.1063/5.0137838
   
   with help from (in alphabetical order)
   P. Atkinson, C. Bannwarth, F. Bohle, G. Brandenburg, E. Caldeweyher
   M. Checinski, S. Dohm, S. Ehlert, S. Ehrlich, I. Gerasimov, C. Hölzer
   A. Katbashev, J. Kohn, J. Koopman, C. Lavigne, S. Lehtola, F. März, M. Müller,
   F. Musil, H. Neugebauer, J. Pisarek, C. Plett, P. Pracht, F. Pultar,
   J. Seibert, P. Shushkov, S. Spicher, M. Stahn, M. Steiner, T. Strunk,
   J. Stückrath, T. Rose, and J. Unsleber
   
 * started run on 2025/07/14 at 11:28:43.211     
   ID    Z sym.   atoms
    1   15 P      1
    2    6 C      2, 5, 9-14, 20, 23
    3    1 H      3, 4, 6-8, 15-19, 21, 22, 24-26

           -------------------------------------------------
          |                Calculation Setup                |
           -------------------------------------------------

          program call               : /home/minenky/programs/xtb/xtb-dist/bin/xtb m1_00_PEt2Ph-PBE0-D3-TZ-uniMM_25.xyz --charge 0 --T --ohess extreme --cycles 5000 --acc 0.01 --iterations 5000
          coordinate file            : m1_00_PEt2Ph-PBE0-D3-TZ-uniMM_25.xyz
          omp threads                :                    12

########################################################################
[WARNING] Please study the warnings concerning your input carefully
-1- prog_main_parseArguments: Unknown option '--T' provided
########################################################################

           -------------------------------------------------
          |                 G F N 2 - x T B                 |
           -------------------------------------------------

        Reference                      10.1021/acs.jctc.8b01176
      * Hamiltonian:
        H0-scaling (s, p, d)           1.850000    2.230000    2.230000
        zeta-weighting                 0.500000
      * Dispersion:
        s8                             2.700000
        a1                             0.520000
        a2                             5.000000
        s9                             5.000000
      * Repulsion:
        kExp                           1.500000    1.000000
        rExp                           1.000000
      * Coulomb:
        alpha                          2.000000
        third order                    shell-resolved
        anisotropic                    true
        a3                             3.000000
        a5                             4.000000
        cn-shift                       1.200000
        cn-exp                         4.000000
        max-rad                        5.000000


          ...................................................
          :                      SETUP                      :
          :.................................................:
          :  # basis functions                  65          :
          :  # atomic orbitals                  64          :
          :  # shells                           38          :
          :  # electrons                        60          :
          :  max. iterations                  5000          :
          :  Hamiltonian                  GFN2-xTB          :
          :  restarted?                      false          :
          :  GBSA solvation                  false          :
          :  PC potential                    false          :
          :  electronic temp.          300.0000000     K    :
          :  accuracy                    0.0100000          :
          :  -> integral cutoff          0.4500000E+02      :
          :  -> integral neglect         0.1000000E-09      :
          :  -> SCF convergence          0.1000000E-07 Eh   :
          :  -> wf. convergence          0.1000000E-05 e    :
          :  Broyden damping             0.4000000          :
          :  net charge                          0          :
          :  unpaired electrons                  0          :
          ...................................................

 iter      E             dE          RMSdq      gap      omega  full diag
   1    -32.0155720 -0.320156E+02  0.388E+00    3.93       0.0  T
   2    -32.0598748 -0.443028E-01  0.229E+00    3.55       1.0  T
   3    -32.0595830  0.291804E-03  0.917E-01    3.31       1.0  T
   4    -32.0610065 -0.142345E-02  0.272E-01    3.36       1.0  T
   5    -32.0619436 -0.937188E-03  0.126E-01    3.40       1.0  T
   6    -32.0621621 -0.218428E-03  0.457E-02    3.39       1.0  T
   7    -32.0621808 -0.186913E-04  0.147E-02    3.39       1.3  T
   8    -32.0621815 -0.710309E-06  0.636E-03    3.39       3.1  T
   9    -32.0621818 -0.312834E-06  0.139E-03    3.39      14.1  T
  10    -32.0621818 -0.257728E-07  0.475E-04    3.39      41.3  T
  11    -32.0621818 -0.535763E-09  0.235E-04    3.39      83.4  T
  12    -32.0621818 -0.410331E-09  0.624E-05    3.39     314.5  T
  13    -32.0621818 -0.390088E-11  0.194E-05    3.39    1012.9  T
  14    -32.0621818 -0.596856E-12  0.435E-06    3.39    4503.5  T
  15    -32.0621818 -0.639488E-13  0.250E-06    3.39    7834.6  T

   *** convergence criteria satisfied after 15 iterations ***

         #    Occupation            Energy/Eh            Energy/eV
      -------------------------------------------------------------
         1        2.0000           -0.6603793             -17.9698
       ...           ...                  ...                  ...
        24        2.0000           -0.4364666             -11.8769
        25        2.0000           -0.4270247             -11.6199
        26        2.0000           -0.4146320             -11.2827
        27        2.0000           -0.4128545             -11.2343
        28        2.0000           -0.4023678             -10.9490
        29        2.0000           -0.4007750             -10.9056
        30        2.0000           -0.3536224              -9.6226 (HOMO)
        31                         -0.2290654              -6.2332 (LUMO)
        32                         -0.2221098              -6.0439
        33                         -0.1484107              -4.0385
        34                         -0.1416919              -3.8556
        35                         -0.0993200              -2.7026
       ...                                ...                  ...
        64                          0.7937265              21.5984
      -------------------------------------------------------------
                  HL-Gap            0.1245570 Eh            3.3894 eV
             Fermi-level           -0.2913439 Eh           -7.9279 eV

 SCC (total)                   0 d,  0 h,  0 min,  0.086 sec
 SCC setup                      ...        0 min,  0.000 sec (  0.150%)
 Dispersion                     ...        0 min,  0.000 sec (  0.146%)
 classical contributions        ...        0 min,  0.000 sec (  0.013%)
 integral evaluation            ...        0 min,  0.002 sec (  2.154%)
 iterations                     ...        0 min,  0.082 sec ( 95.382%)
 molecular gradient             ...        0 min,  0.002 sec (  2.046%)
 printout                       ...        0 min,  0.000 sec (  0.088%)

         :::::::::::::::::::::::::::::::::::::::::::::::::::::
         ::                     SUMMARY                     ::
         :::::::::::::::::::::::::::::::::::::::::::::::::::::
         :: total energy             -31.547486345554 Eh    ::
         :: gradient norm              0.047105920214 Eh/a0 ::
         :: HOMO-LUMO gap              3.389368906193 eV    ::
         ::.................................................::
         :: SCC energy               -32.062091195185 Eh    ::
         :: -> isotropic ES            0.004203385839 Eh    ::
         :: -> anisotropic ES          0.006181714013 Eh    ::
         :: -> anisotropic XC          0.021894786269 Eh    ::
         :: -> dispersion             -0.023280318673 Eh    ::
         :: repulsion energy           0.514604849630 Eh    ::
         :: add. restraining           0.000000000000 Eh    ::
         :: total charge               0.000000000000 e     ::
         :::::::::::::::::::::::::::::::::::::::::::::::::::::

      ----------------------------------------------------------- 
     |                   =====================                   |
     |                        A N C O P T                        |
     |                   =====================                   |
     |               Approximate Normal Coordinate               |
     |                Rational Function Optimizer                |
      ----------------------------------------------------------- 
      ----------------------------------------------------------- 
     |                   =====================                   |
     |                        A N C O P T                        |
     |                   =====================                   |
     |               Approximate Normal Coordinate               |
     |                Rational Function Optimizer                |
      ----------------------------------------------------------- 

          ...................................................
          :                      SETUP                      :
          :.................................................:
          :   optimization level           extreme          :
          :   max. optcycles                  5000          :
          :   ANC micro-cycles                  20          :
          :   degrees of freedom                72          :
          :.................................................:
          :   RF solver                   davidson          :
          :   write xtbopt.log                true          :
          :   linear?                        false          :
          :   energy convergence         0.5000000E-07 Eh   :
          :   grad. convergence          0.5000000E-04 Eh/α :
          :   maxmium RF displ.          1.0000000          :
          :   Hlow (freq-cutoff)         0.1000000E-01      :
          :   Hmax (freq-cutoff)         5.0000000          :
          :   S6 in model hess.         20.0000000          :
          ...................................................

generating ANC from model Hessian ...
Using Lindh-Hessian (1995)
 Shifting diagonal of input Hessian by   9.314141826163370E-003
 Lowest  eigenvalues of input Hessian
    0.000000    0.000000    0.000000    0.000000    0.000000    0.000000
    0.010000    0.010595    0.010754    0.011151    0.011552    0.012700
    0.016339    0.018029    0.018305    0.019448    0.021381    0.024068
 Highest eigenvalues
    1.347116    1.535477    1.561952    1.864361    1.965980    1.985732
 

........................................................................
.............................. CYCLE    1 ..............................
........................................................................

 iter      E             dE          RMSdq      gap      omega  full diag
   1    -32.0621818 -0.320622E+02  0.124E-06    3.39       0.0  T
   2    -32.0621818  0.781597E-13  0.641E-07    3.39   30618.7  T
   3    -32.0621818 -0.852651E-13  0.495E-07    3.39   39625.8  T
     SCC iter.                  ...        0 min,  0.073 sec
     gradient                   ...        0 min,  0.002 sec
 * total energy  :   -31.5474863 Eh     change       -0.8526513E-13 Eh
   gradient norm :     0.0471059 Eh/α   predicted     0.0000000E+00 (-100.00%)
   displ. norm   :     0.3437045 α      lambda       -0.9311346E-02
   maximum displ.:     0.1924005 α      in ANC's #8, #17, #21, ...

........................................................................
.............................. CYCLE    2 ..............................
........................................................................

 iter      E             dE          RMSdq      gap      omega  full diag
   1    -32.0666040 -0.320666E+02  0.514E-01    3.65       0.0  T
   2    -32.0669046 -0.300684E-03  0.242E-01    3.69       1.0  T
   3    -32.0669292 -0.245466E-04  0.744E-02    3.72       1.0  T
   4    -32.0669249  0.428651E-05  0.388E-02    3.71       1.0  T
   5    -32.0669418 -0.168621E-04  0.119E-02    3.71       1.6  T
   6    -32.0669438 -0.199920E-05  0.208E-03    3.71       9.4  T
   7    -32.0669438 -0.382876E-09  0.896E-04    3.71      21.9  T
   8    -32.0669438 -0.172008E-08  0.383E-04    3.71      51.2  T
   9    -32.0669438 -0.236690E-08  0.114E-04    3.71     171.4  T
  10    -32.0669438 -0.641833E-10  0.369E-05    3.71     531.7  T
  11    -32.0669438 -0.245137E-11  0.946E-06    3.71    2073.2  T
  12    -32.0669438 -0.724754E-12  0.416E-06    3.71    4713.2  T
     SCC iter.                  ...        0 min,  0.075 sec
     gradient                   ...        0 min,  0.002 sec
 * total energy  :   -31.5518542 Eh     change       -0.4367816E-02 Eh
   gradient norm :     0.0129564 Eh/α   predicted    -0.5205847E-02 (  19.19%)
   displ. norm   :     0.2289953 α      lambda       -0.1243169E-02
   maximum displ.:     0.1159301 α      in ANC's #7, #4, #8, ...

........................................................................
.............................. CYCLE    3 ..............................
........................................................................

 iter      E             dE          RMSdq      gap      omega  full diag
   1    -32.0711581 -0.320712E+02  0.108E-01    3.68       0.0  T
   2    -32.0711648 -0.671130E-05  0.569E-02    3.67       1.0  T
   3    -32.0711629  0.194701E-05  0.173E-02    3.66       1.1  T
   4    -32.0711649 -0.204687E-05  0.830E-03    3.66       2.4  T
   5    -32.0711660 -0.111315E-05  0.158E-03    3.67      12.4  T
   6    -32.0711660 -0.399279E-08  0.688E-04    3.67      28.5  T
   7    -32.0711660 -0.189939E-08  0.238E-04    3.67      82.5  T
   8    -32.0711660 -0.101345E-09  0.641E-05    3.67     306.1  T
   9    -32.0711660 -0.182325E-10  0.293E-05    3.67     668.5  T
  10    -32.0711660 -0.194689E-11  0.164E-05    3.67    1198.0  T
  11    -32.0711660 -0.213873E-11  0.487E-06    3.67    4028.1  T
  12    -32.0711660 -0.135003E-12  0.193E-06    3.67   10149.8  T
     SCC iter.                  ...        0 min,  0.074 sec
     gradient                   ...        0 min,  0.002 sec
 * total energy  :   -31.5527218 Eh     change       -0.8675947E-03 Eh
   gradient norm :     0.0053143 Eh/α   predicted    -0.6542540E-03 ( -24.59%)
   displ. norm   :     0.2769371 α      lambda       -0.6351098E-03
   maximum displ.:     0.1643562 α      in ANC's #4, #8, #7, ...

........................................................................
.............................. CYCLE    4 ..............................
........................................................................

 iter      E             dE          RMSdq      gap      omega  full diag
   1    -32.0729031 -0.320729E+02  0.947E-02    3.65       0.0  T
   2    -32.0729046 -0.150117E-05  0.546E-02    3.65       1.0  T
   3    -32.0729037  0.879523E-06  0.105E-02    3.65       1.9  T
   4    -32.0729049 -0.118772E-05  0.336E-03    3.65       5.8  T
   5    -32.0729049 -0.831990E-07  0.130E-03    3.65      15.0  T
   6    -32.0729050 -0.190137E-07  0.603E-04    3.65      32.5  T
   7    -32.0729050 -0.186154E-08  0.139E-04    3.65     141.0  T
   8    -32.0729050 -0.275975E-10  0.599E-05    3.65     327.2  T
   9    -32.0729050 -0.287343E-10  0.290E-05    3.65     675.7  T
  10    -32.0729050 -0.447642E-11  0.102E-05    3.65    1925.4  T
  11    -32.0729050 -0.284217E-12  0.459E-06    3.65    4273.4  T
  12    -32.0729050 -0.270006E-12  0.153E-06    3.65   12858.4  T
     SCC iter.                  ...        0 min,  0.075 sec
     gradient                   ...        0 min,  0.002 sec
 * total energy  :   -31.5531272 Eh     change       -0.4054282E-03 Eh
   gradient norm :     0.0029233 Eh/α   predicted    -0.3419115E-03 ( -15.67%)
   displ. norm   :     0.1656587 α      lambda       -0.1635969E-03
   maximum displ.:     0.1022858 α      in ANC's #4, #3, #8, ...

........................................................................
.............................. CYCLE    5 ..............................
........................................................................

 iter      E             dE          RMSdq      gap      omega  full diag
   1    -32.0734692 -0.320735E+02  0.503E-02    3.65       0.0  T
   2    -32.0734696 -0.394074E-06  0.299E-02    3.65       1.0  T
   3    -32.0734694  0.226872E-06  0.624E-03    3.65       3.1  T
   4    -32.0734697 -0.334684E-06  0.110E-03    3.65      17.8  T
   5    -32.0734697  0.315971E-09  0.692E-04    3.65      28.3  T
   6    -32.0734697 -0.541106E-08  0.257E-04    3.65      76.4  T
   7    -32.0734697 -0.788560E-10  0.772E-05    3.65     254.2  T
   8    -32.0734697 -0.609006E-10  0.323E-05    3.65     607.5  T
   9    -32.0734697 -0.107434E-10  0.117E-05    3.65    1681.9  T
  10    -32.0734697 -0.952127E-12  0.482E-06    3.65    4065.0  T
  11    -32.0734697 -0.284217E-13  0.229E-06    3.65    8548.8  T
     SCC iter.                  ...        0 min,  0.075 sec
     gradient                   ...        0 min,  0.002 sec
 * total energy  :   -31.5532471 Eh     change       -0.1198687E-03 Eh
   gradient norm :     0.0028373 Eh/α   predicted    -0.8406159E-04 ( -29.87%)
   displ. norm   :     0.1585608 α      lambda       -0.1108353E-03
   maximum displ.:     0.0895096 α      in ANC's #4, #3, #1, ...

........................................................................
.............................. CYCLE    6 ..............................
........................................................................

 iter      E             dE          RMSdq      gap      omega  full diag
   1    -32.0738490 -0.320738E+02  0.571E-02    3.65       0.0  T
   2    -32.0738493 -0.371897E-06  0.333E-02    3.65       1.0  T
   3    -32.0738491  0.260511E-06  0.598E-03    3.65       3.3  T
   4    -32.0738494 -0.357862E-06  0.110E-03    3.65      17.8  T
   5    -32.0738494 -0.776144E-08  0.570E-04    3.65      34.4  T
   6    -32.0738495 -0.618245E-08  0.223E-04    3.65      88.1  T
   7    -32.0738495 -0.750262E-10  0.774E-05    3.65     253.5  T
   8    -32.0738495 -0.631459E-10  0.288E-05    3.65     681.3  T
   9    -32.0738495 -0.303402E-11  0.125E-05    3.65    1572.2  T
  10    -32.0738495 -0.178346E-11  0.430E-06    3.65    4558.1  T
  11    -32.0738495 -0.923706E-13  0.169E-06    3.65   11590.0  T
     SCC iter.                  ...        0 min,  0.075 sec
     gradient                   ...        0 min,  0.002 sec
 * total energy  :   -31.5533287 Eh     change       -0.8168493E-04 Eh
   gradient norm :     0.0018714 Eh/α   predicted    -0.5681568E-04 ( -30.45%)
   displ. norm   :     0.2308827 α      lambda       -0.7326310E-04
   maximum displ.:     0.1165058 α      in ANC's #1, #3, #4, ...

........................................................................
.............................. CYCLE    7 ..............................
........................................................................

 iter      E             dE          RMSdq      gap      omega  full diag
   1    -32.0737579 -0.320738E+02  0.902E-02    3.65       0.0  T
   2    -32.0737586 -0.722261E-06  0.521E-02    3.65       1.0  T
   3    -32.0737579  0.785886E-06  0.920E-03    3.65       2.1  T
   4    -32.0737588 -0.990660E-06  0.181E-03    3.65      10.8  T
   5    -32.0737589 -0.363548E-07  0.822E-04    3.65      23.9  T
   6    -32.0737589 -0.116763E-07  0.311E-04    3.65      63.2  T
   7    -32.0737589 -0.878657E-10  0.112E-04    3.65     175.5  T
   8    -32.0737589 -0.184137E-09  0.341E-05    3.65     574.7  T
   9    -32.0737589 -0.572697E-11  0.156E-05    3.65    1254.5  T
  10    -32.0737589 -0.179057E-11  0.518E-06    3.65    3785.8  T
  11    -32.0737589 -0.781597E-13  0.196E-06    3.65    9987.9  T
     SCC iter.                  ...        0 min,  0.074 sec
     gradient                   ...        0 min,  0.002 sec
 * total energy  :   -31.5533906 Eh     change       -0.6190659E-04 Eh
   gradient norm :     0.0020034 Eh/α   predicted    -0.3750123E-04 ( -39.42%)
   displ. norm   :     0.0497508 α      lambda       -0.2348764E-04
   maximum displ.:     0.0338147 α      in ANC's #1, #3, #8, ...

........................................................................
.............................. CYCLE    8 ..............................
........................................................................

 iter      E             dE          RMSdq      gap      omega  full diag
   1    -32.0740012 -0.320740E+02  0.190E-02    3.65       0.0  T
   2    -32.0740012 -0.328151E-07  0.111E-02    3.65       1.8  T
   3    -32.0740011  0.427354E-07  0.157E-03    3.65      12.5  T
   4    -32.0740012 -0.502732E-07  0.488E-04    3.65      40.2  T
   5    -32.0740012 -0.407584E-08  0.149E-04    3.65     131.5  T
   6    -32.0740012 -0.574261E-10  0.701E-05    3.65     279.7  T
   7    -32.0740012 -0.729727E-11  0.250E-05    3.65     785.3  T
   8    -32.0740012 -0.571987E-11  0.810E-06    3.65    2420.6  T
   9    -32.0740012 -0.390799E-12  0.377E-06    3.65    5207.6  T
     SCC iter.                  ...        0 min,  0.074 sec
     gradient                   ...        0 min,  0.002 sec
 * total energy  :   -31.5534106 Eh     change       -0.1995425E-04 Eh
   gradient norm :     0.0014579 Eh/α   predicted    -0.1178479E-04 ( -40.94%)
   displ. norm   :     0.1389601 α      lambda       -0.3549473E-04
   maximum displ.:     0.0970878 α      in ANC's #1, #3, #8, ...

........................................................................
.............................. CYCLE    9 ..............................
........................................................................

 iter      E             dE          RMSdq      gap      omega  full diag
   1    -32.0739434 -0.320739E+02  0.461E-02    3.65       0.0  T
   2    -32.0739435 -0.151632E-06  0.273E-02    3.65       1.0  T
   3    -32.0739434  0.119449E-06  0.274E-03    3.65       7.2  T
   4    -32.0739436 -0.161838E-06  0.918E-04    3.65      21.4  T
   5    -32.0739436 -0.130014E-07  0.458E-04    3.65      42.8  T
   6    -32.0739436 -0.575270E-09  0.160E-04    3.65     122.9  T
   7    -32.0739436  0.508038E-11  0.575E-05    3.65     340.8  T
   8    -32.0739436 -0.465903E-10  0.192E-05    3.65    1021.6  T
   9    -32.0739436 -0.268585E-11  0.944E-06    3.65    2078.6  T
  10    -32.0739436 -0.461853E-12  0.336E-06    3.65    5831.3  T
     SCC iter.                  ...        0 min,  0.074 sec
     gradient                   ...        0 min,  0.002 sec
 * total energy  :   -31.5534405 Eh     change       -0.2986918E-04 Eh
   gradient norm :     0.0011806 Eh/α   predicted    -0.1790056E-04 ( -40.07%)
   displ. norm   :     0.0607242 α      lambda       -0.1008516E-04
   maximum displ.:     0.0473953 α      in ANC's #1, #3, #9, ...

........................................................................
.............................. CYCLE   10 ..............................
........................................................................

 iter      E             dE          RMSdq      gap      omega  full diag
   1    -32.0738772 -0.320739E+02  0.184E-02    3.65       0.0  T
   2    -32.0738772 -0.161703E-07  0.108E-02    3.65       1.8  T
   3    -32.0738772  0.112096E-07  0.114E-03    3.65      17.2  T
   4    -32.0738773 -0.172757E-07  0.229E-04    3.65      85.7  T
   5    -32.0738773 -0.224816E-09  0.131E-04    3.65     150.2  T
   6    -32.0738773 -0.226393E-09  0.485E-05    3.65     404.4  T
   7    -32.0738773 -0.367351E-11  0.172E-05    3.65    1140.4  T
   8    -32.0738773 -0.246558E-11  0.786E-06    3.65    2495.5  T
   9    -32.0738773 -0.753175E-12  0.259E-06    3.65    7584.3  T
     SCC iter.                  ...        0 min,  0.073 sec
     gradient                   ...        0 min,  0.002 sec
 * total energy  :   -31.5534542 Eh     change       -0.1371614E-04 Eh
   gradient norm :     0.0009418 Eh/α   predicted    -0.5051480E-05 ( -63.17%)
   displ. norm   :     0.1013463 α      lambda       -0.1888464E-04
   maximum displ.:     0.0707348 α      in ANC's #1, #3, #2, ...

........................................................................
.............................. CYCLE   11 ..............................
........................................................................

 iter      E             dE          RMSdq      gap      omega  full diag
   1    -32.0740583 -0.320741E+02  0.275E-02    3.65       0.0  T
   2    -32.0740584 -0.874464E-07  0.160E-02    3.65       1.2  T
   3    -32.0740583  0.840192E-07  0.257E-03    3.65       7.6  T
   4    -32.0740584 -0.102064E-06  0.733E-04    3.65      26.8  T
   5    -32.0740584 -0.752499E-08  0.250E-04    3.65      78.5  T
   6    -32.0740584 -0.732207E-09  0.121E-04    3.65     162.0  T
   7    -32.0740584 -0.247837E-10  0.352E-05    3.65     557.6  T
   8    -32.0740584 -0.195541E-10  0.119E-05    3.65    1650.6  T
   9    -32.0740584 -0.916600E-12  0.437E-06    3.65    4483.0  T
  10    -32.0740584 -0.106581E-12  0.221E-06    3.65    8891.6  T
     SCC iter.                  ...        0 min,  0.073 sec
     gradient                   ...        0 min,  0.002 sec
 * total energy  :   -31.5534765 Eh     change       -0.2231364E-04 Eh
   gradient norm :     0.0006416 Eh/α   predicted    -0.9489709E-05 ( -57.47%)
   displ. norm   :     0.1283717 α      lambda       -0.1521593E-04
   maximum displ.:     0.0905920 α      in ANC's #1, #3, #2, ...

........................................................................
.............................. CYCLE   12 ..............................
........................................................................

 iter      E             dE          RMSdq      gap      omega  full diag
   1    -32.0739025 -0.320739E+02  0.338E-02    3.65       0.0  T
   2    -32.0739026 -0.685862E-07  0.201E-02    3.65       1.0  T
   3    -32.0739025  0.744588E-07  0.218E-03    3.65       9.0  T
   4    -32.0739026 -0.972388E-07  0.587E-04    3.65      33.4  T
   5    -32.0739026 -0.337497E-08  0.278E-04    3.65      70.6  T
   6    -32.0739026 -0.110433E-09  0.987E-05    3.65     198.7  T
   7    -32.0739026 -0.583569E-10  0.327E-05    3.65     600.0  T
   8    -32.0739026 -0.135003E-10  0.124E-05    3.65    1575.9  T
   9    -32.0739026 -0.173372E-11  0.566E-06    3.65    3462.1  T
  10    -32.0739026 -0.135003E-12  0.216E-06    3.65    9064.4  T
     SCC iter.                  ...        0 min,  0.074 sec
     gradient                   ...        0 min,  0.002 sec
 * total energy  :   -31.5534939 Eh     change       -0.1736222E-04 Eh
   gradient norm :     0.0006526 Eh/α   predicted    -0.7664011E-05 ( -55.86%)
   displ. norm   :     0.1209298 α      lambda       -0.1060729E-04
   maximum displ.:     0.0852311 α      in ANC's #1, #3, #2, ...

........................................................................
.............................. CYCLE   13 ..............................
........................................................................

 iter      E             dE          RMSdq      gap      omega  full diag
   1    -32.0738391 -0.320738E+02  0.330E-02    3.65       0.0  T
   2    -32.0738391 -0.581099E-07  0.194E-02    3.65       1.0  T
   3    -32.0738391  0.417330E-07  0.187E-03    3.65      10.5  T
   4    -32.0738392 -0.622803E-07  0.508E-04    3.65      38.6  T
   5    -32.0738392 -0.179279E-08  0.251E-04    3.65      78.0  T
   6    -32.0738392 -0.489550E-09  0.108E-04    3.65     182.3  T
   7    -32.0738392 -0.371614E-10  0.236E-05    3.65     830.0  T
   8    -32.0738392 -0.486011E-11  0.964E-06    3.65    2033.8  T
   9    -32.0738392 -0.547118E-12  0.526E-06    3.65    3729.5  T
     SCC iter.                  ...        0 min,  0.073 sec
     gradient                   ...        0 min,  0.002 sec
 * total energy  :   -31.5535066 Eh     change       -0.1274590E-04 Eh
   gradient norm :     0.0006835 Eh/α   predicted    -0.5340258E-05 ( -58.10%)
   displ. norm   :     0.1449942 α      lambda       -0.1148962E-04
   maximum displ.:     0.1008926 α      in ANC's #1, #3, #2, ...

........................................................................
.............................. CYCLE   14 ..............................
........................................................................

 iter      E             dE          RMSdq      gap      omega  full diag
   1    -32.0738859 -0.320739E+02  0.420E-02    3.65       0.0  T
   2    -32.0738860 -0.799540E-07  0.248E-02    3.65       1.0  T
   3    -32.0738859  0.652314E-07  0.249E-03    3.65       7.9  T
   4    -32.0738860 -0.941858E-07  0.529E-04    3.65      37.1  T
   5    -32.0738860 -0.270589E-08  0.302E-04    3.65      64.9  T
   6    -32.0738860 -0.492143E-09  0.111E-04    3.65     176.0  T
   7    -32.0738860 -0.699600E-10  0.362E-05    3.65     542.2  T
   8    -32.0738860 -0.737543E-11  0.140E-05    3.65    1405.4  T
   9    -32.0738860 -0.211031E-11  0.530E-06    3.65    3703.2  T
  10    -32.0738860 -0.781597E-13  0.209E-06    3.65    9361.3  T
     SCC iter.                  ...        0 min,  0.074 sec
     gradient                   ...        0 min,  0.002 sec
 * total energy  :   -31.5535207 Eh     change       -0.1405468E-04 Eh
   gradient norm :     0.0006766 Eh/α   predicted    -0.5799454E-05 ( -58.74%)
   displ. norm   :     0.1974671 α      lambda       -0.1385152E-04
   maximum displ.:     0.1358190 α      in ANC's #1, #3, #2, ...

........................................................................
.............................. CYCLE   15 ..............................
........................................................................

 iter      E             dE          RMSdq      gap      omega  full diag
   1    -32.0738230 -0.320738E+02  0.589E-02    3.66       0.0  T
   2    -32.0738232 -0.181973E-06  0.347E-02    3.66       1.0  T
   3    -32.0738230  0.164621E-06  0.396E-03    3.66       4.9  T
   4    -32.0738233 -0.228478E-06  0.800E-04    3.66      24.5  T
   5    -32.0738233 -0.694655E-08  0.450E-04    3.66      43.6  T
   6    -32.0738233 -0.168954E-08  0.180E-04    3.66     109.1  T
   7    -32.0738233 -0.108749E-09  0.590E-05    3.66     332.4  T
   8    -32.0738233 -0.241727E-10  0.192E-05    3.66    1023.3  T
   9    -32.0738233 -0.529354E-11  0.705E-06    3.66    2779.9  T
  10    -32.0738233 -0.127898E-12  0.269E-06    3.66    7291.1  T
     SCC iter.                  ...        0 min,  0.074 sec
     gradient                   ...        0 min,  0.002 sec
 * total energy  :   -31.5535359 Eh     change       -0.1523680E-04 Eh
   gradient norm :     0.0008058 Eh/α   predicted    -0.7049547E-05 ( -53.73%)
   displ. norm   :     0.1620627 α      lambda       -0.9404205E-05
   maximum displ.:     0.1087411 α      in ANC's #1, #2, #3, ...

........................................................................
.............................. CYCLE   16 ..............................
........................................................................

 iter      E             dE          RMSdq      gap      omega  full diag
   1    -32.0739721 -0.320740E+02  0.492E-02    3.66       0.0  T
   2    -32.0739723 -0.130785E-06  0.290E-02    3.66       1.0  T
   3    -32.0739722  0.954156E-07  0.300E-03    3.66       6.5  T
   4    -32.0739723 -0.134754E-06  0.748E-04    3.66      26.2  T
   5    -32.0739723 -0.670052E-08  0.369E-04    3.66      53.2  T
   6    -32.0739723 -0.155585E-08  0.151E-04    3.66     129.6  T
   7    -32.0739723 -0.299138E-10  0.458E-05    3.66     428.5  T
   8    -32.0739723 -0.195897E-10  0.148E-05    3.66    1328.8  T
   9    -32.0739723 -0.274980E-11  0.537E-06    3.66    3650.8  T
  10    -32.0739723 -0.163425E-12  0.186E-06    3.66   10518.6  T
     SCC iter.                  ...        0 min,  0.074 sec
     gradient                   ...        0 min,  0.002 sec
 * total energy  :   -31.5535458 Eh     change       -0.9886466E-05 Eh
   gradient norm :     0.0006174 Eh/α   predicted    -0.4759895E-05 ( -51.85%)
   displ. norm   :     0.0966724 α      lambda       -0.5800237E-05
   maximum displ.:     0.0583306 α      in ANC's #1, #2, #4, ...

........................................................................
.............................. CYCLE   17 ..............................
........................................................................

 iter      E             dE          RMSdq      gap      omega  full diag
   1    -32.0743710 -0.320744E+02  0.306E-02    3.66       0.0  T
   2    -32.0743710 -0.570230E-07  0.180E-02    3.66       1.1  T
   3    -32.0743710  0.523261E-07  0.206E-03    3.66       9.5  T
   4    -32.0743710 -0.706187E-07  0.505E-04    3.66      38.9  T
   5    -32.0743710 -0.315823E-08  0.234E-04    3.66      83.8  T
   6    -32.0743710 -0.621995E-09  0.939E-05    3.66     208.8  T
   7    -32.0743710 -0.289191E-11  0.336E-05    3.66     583.1  T
   8    -32.0743710 -0.134364E-10  0.937E-06    3.66    2093.2  T
   9    -32.0743710 -0.115108E-11  0.336E-06    3.66    5842.0  T
     SCC iter.                  ...        0 min,  0.074 sec
     gradient                   ...        0 min,  0.002 sec
 * total energy  :   -31.5535520 Eh     change       -0.6217168E-05 Eh
   gradient norm :     0.0004386 Eh/α   predicted    -0.2913842E-05 ( -53.13%)
   displ. norm   :     0.0848925 α      lambda       -0.3963194E-05
   maximum displ.:     0.0491505 α      in ANC's #2, #1, #4, ...

........................................................................
.............................. CYCLE   18 ..............................
........................................................................

 iter      E             dE          RMSdq      gap      omega  full diag
   1    -32.0741317 -0.320741E+02  0.272E-02    3.66       0.0  T
   2    -32.0741317 -0.651792E-07  0.160E-02    3.66       1.2  T
   3    -32.0741317  0.280106E-07  0.194E-03    3.66      10.1  T
   4    -32.0741317 -0.410531E-07  0.540E-04    3.66      36.3  T
   5    -32.0741317 -0.315895E-08  0.247E-04    3.66      79.3  T
   6    -32.0741317 -0.786137E-09  0.954E-05    3.66     205.6  T
   7    -32.0741317 -0.171809E-10  0.307E-05    3.66     639.6  T
   8    -32.0741317 -0.402167E-11  0.113E-05    3.66    1736.3  T
   9    -32.0741317 -0.187583E-11  0.379E-06    3.66    5174.2  T
  10    -32.0741317  0.781597E-13  0.116E-06    3.66   16970.7  T
     SCC iter.                  ...        0 min,  0.074 sec
     gradient                   ...        0 min,  0.002 sec
 * total energy  :   -31.5535562 Eh     change       -0.4151532E-05 Eh
   gradient norm :     0.0003328 Eh/α   predicted    -0.1990381E-05 ( -52.06%)
   displ. norm   :     0.0529572 α      lambda       -0.1926457E-05
   maximum displ.:     0.0353080 α      in ANC's #2, #1, #4, ...

........................................................................
.............................. CYCLE   19 ..............................
........................................................................

 iter      E             dE          RMSdq      gap      omega  full diag
   1    -32.0742244 -0.320742E+02  0.170E-02    3.66       0.0  T
   2    -32.0742244 -0.201985E-07  0.100E-02    3.66       2.0  T
   3    -32.0742244  0.484139E-08  0.786E-04    3.66      25.0  T
   4    -32.0742244 -0.803212E-08  0.398E-04    3.66      49.3  T
   5    -32.0742244 -0.263048E-08  0.115E-04    3.66     170.2  T
   6    -32.0742244 -0.468816E-10  0.535E-05    3.66     366.8  T
   7    -32.0742244 -0.159872E-10  0.129E-05    3.66    1520.3  T
   8    -32.0742244 -0.987654E-12  0.513E-06    3.66    3824.7  T
   9    -32.0742244 -0.198952E-12  0.180E-06    3.66   10899.9  T
     SCC iter.                  ...        0 min,  0.073 sec
     gradient                   ...        0 min,  0.002 sec
 * total energy  :   -31.5535581 Eh     change       -0.1937391E-05 Eh
   gradient norm :     0.0003035 Eh/α   predicted    -0.9693164E-06 ( -49.97%)
   displ. norm   :     0.0266539 α      lambda       -0.8952061E-06
   maximum displ.:     0.0194543 α      in ANC's #2, #1, #5, ...

........................................................................
.............................. CYCLE   20 ..............................
........................................................................

 iter      E             dE          RMSdq      gap      omega  full diag
   1    -32.0741845 -0.320742E+02  0.901E-03    3.66       0.0  T
   2    -32.0741845 -0.741240E-08  0.532E-03    3.66       3.7  T
   3    -32.0741845  0.243059E-08  0.673E-04    3.66      29.1  T
   4    -32.0741845 -0.396938E-08  0.150E-04    3.66     130.4  T
   5    -32.0741845 -0.170722E-09  0.814E-05    3.66     241.0  T
   6    -32.0741845 -0.998099E-10  0.328E-05    3.66     598.4  T
   7    -32.0741845 -0.353850E-11  0.968E-06    3.66    2026.4  T
   8    -32.0741845 -0.341061E-12  0.377E-06    3.66    5196.2  T
     SCC iter.                  ...        0 min,  0.073 sec
     gradient                   ...        0 min,  0.002 sec
 * total energy  :   -31.5535591 Eh     change       -0.1024699E-05 Eh
   gradient norm :     0.0001831 Eh/α   predicted    -0.4508923E-06 ( -56.00%)
   displ. norm   :     0.0271923 α      lambda       -0.1038774E-05
   maximum displ.:     0.0176375 α      in ANC's #2, #3, #7, ...
 * RMSD in coord.:     0.3792108 α      energy gain  -0.6072769E-02 Eh

generating ANC from model Hessian ...
Using Lindh-Hessian (1995)
 Shifting diagonal of input Hessian by   9.350367668687671E-003
 Lowest  eigenvalues of input Hessian
    0.000000    0.000000    0.000000    0.000000    0.000000    0.000000
    0.010000    0.010679    0.010908    0.011139    0.011811    0.012688
    0.016363    0.017287    0.017902    0.018955    0.020282    0.024413
 Highest eigenvalues
    1.364982    1.552740    1.576771    1.880804    1.987898    2.006629
 

........................................................................
.............................. CYCLE   21 ..............................
........................................................................

 iter      E             dE          RMSdq      gap      omega  full diag
   1    -32.0741935 -0.320742E+02  0.841E-03    3.67       0.0  T
   2    -32.0741935 -0.584469E-08  0.494E-03    3.67       4.0  T
   3    -32.0741935 -0.140240E-09  0.404E-04    3.67      48.6  T
   4    -32.0741935 -0.767848E-09  0.149E-04    3.67     131.3  T
   5    -32.0741935 -0.254282E-09  0.824E-05    3.67     237.9  T
   6    -32.0741935 -0.852793E-10  0.356E-05    3.67     550.4  T
   7    -32.0741935 -0.275691E-11  0.879E-06    3.67    2232.0  T
   8    -32.0741935 -0.895284E-12  0.299E-06    3.67    6567.4  T
     SCC iter.                  ...        0 min,  0.073 sec
     gradient                   ...        0 min,  0.002 sec
 * total energy  :   -31.5535603 Eh     change       -0.1213437E-05 Eh
   gradient norm :     0.0001548 Eh/α   predicted     0.0000000E+00 (-100.00%)
   displ. norm   :     0.0062256 α      lambda       -0.2709682E-07
   maximum displ.:     0.0030518 α      in ANC's #6, #5, #11, ...

........................................................................
.............................. CYCLE   22 ..............................
........................................................................

 iter      E             dE          RMSdq      gap      omega  full diag
   1    -32.0741820 -0.320742E+02  0.160E-03    3.67       0.0  T
   2    -32.0741820 -0.420158E-09  0.946E-04    3.67      20.7  T
   3    -32.0741820  0.228503E-09  0.145E-04    3.67     134.8  T
   4    -32.0741820 -0.309079E-09  0.638E-05    3.67     307.6  T
   5    -32.0741820 -0.309441E-10  0.273E-05    3.67     719.7  T
   6    -32.0741820 -0.301270E-11  0.128E-05    3.67    1527.4  T
   7    -32.0741820 -0.873968E-12  0.346E-06    3.67    5660.3  T
   8    -32.0741820 -0.127898E-12  0.825E-07    3.67   23777.3  T
     SCC iter.                  ...        0 min,  0.073 sec
     gradient                   ...        0 min,  0.002 sec
 * total energy  :   -31.5535607 Eh     change       -0.3501195E-06 Eh
   gradient norm :     0.0000674 Eh/α   predicted    -0.1405955E-06 ( -59.84%)
   displ. norm   :     0.0238033 α      lambda       -0.7626936E-06
   maximum displ.:     0.0111510 α      in ANC's #5, #6, #11, ...

........................................................................
.............................. CYCLE   23 ..............................
........................................................................

 iter      E             dE          RMSdq      gap      omega  full diag
   1    -32.0741589 -0.320742E+02  0.520E-03    3.67       0.0  T
   2    -32.0741589 -0.173077E-08  0.310E-03    3.67       6.3  T
   3    -32.0741589  0.101738E-08  0.279E-04    3.67      70.2  T
   4    -32.0741589 -0.144781E-08  0.128E-04    3.67     153.8  T
   5    -32.0741589 -0.210960E-09  0.512E-05    3.67     382.7  T
   6    -32.0741589 -0.273559E-11  0.195E-05    3.67    1004.9  T
   7    -32.0741589 -0.575540E-12  0.633E-06    3.67    3097.2  T
   8    -32.0741589 -0.405009E-12  0.205E-06    3.67    9570.8  T
     SCC iter.                  ...        0 min,  0.073 sec
     gradient                   ...        0 min,  0.002 sec
 * total energy  :   -31.5535614 Eh     change       -0.7433939E-06 Eh
   gradient norm :     0.0002206 Eh/α   predicted    -0.3817555E-06 ( -48.65%)
   displ. norm   :     0.0164178 α      lambda       -0.3038923E-06
   maximum displ.:     0.0080147 α      in ANC's #5, #11, #6, ...

........................................................................
.............................. CYCLE   24 ..............................
........................................................................

 iter      E             dE          RMSdq      gap      omega  full diag
   1    -32.0741641 -0.320742E+02  0.387E-03    3.67       0.0  T
   2    -32.0741641 -0.707367E-09  0.230E-03    3.67       8.5  T
   3    -32.0741641 -0.866507E-10  0.124E-04    3.67     157.9  T
   4    -32.0741641 -0.134690E-09  0.609E-05    3.67     322.0  T
   5    -32.0741641 -0.198739E-10  0.315E-05    3.67     621.9  T
   6    -32.0741641 -0.888178E-11  0.880E-06    3.67    2228.5  T
   7    -32.0741641 -0.213163E-12  0.292E-06    3.67    6710.8  T
     SCC iter.                  ...        0 min,  0.073 sec
     gradient                   ...        0 min,  0.002 sec
 * total energy  :   -31.5535617 Eh     change       -0.3191206E-06 Eh
   gradient norm :     0.0001555 Eh/α   predicted    -0.1527467E-06 ( -52.14%)
   displ. norm   :     0.0134756 α      lambda       -0.2004168E-06
   maximum displ.:     0.0062863 α      in ANC's #5, #3, #11, ...

........................................................................
.............................. CYCLE   25 ..............................
........................................................................

 iter      E             dE          RMSdq      gap      omega  full diag
   1    -32.0741827 -0.320742E+02  0.377E-03    3.67       0.0  T
   2    -32.0741827 -0.588862E-09  0.223E-03    3.67       8.8  T
   3    -32.0741827 -0.126967E-09  0.115E-04    3.67     170.1  T
   4    -32.0741827 -0.379643E-10  0.657E-05    3.67     298.3  T
   5    -32.0741827 -0.567368E-10  0.249E-05    3.67     789.1  T
   6    -32.0741827 -0.110134E-11  0.721E-06    3.67    2720.0  T
   7    -32.0741827 -0.461853E-12  0.156E-06    3.67   12597.5  T
     SCC iter.                  ...        0 min,  0.072 sec
     gradient                   ...        0 min,  0.002 sec
 * total energy  :   -31.5535619 Eh     change       -0.2027122E-06 Eh
   gradient norm :     0.0000461 Eh/α   predicted    -0.1019816E-06 ( -49.69%)
   displ. norm   :     0.0083141 α      lambda       -0.8697214E-07
   maximum displ.:     0.0040274 α      in ANC's #4, #3, #1, ...

........................................................................
.............................. CYCLE   26 ..............................
........................................................................

 iter      E             dE          RMSdq      gap      omega  full diag
   1    -32.0741915 -0.320742E+02  0.273E-03    3.67       0.0  T
   2    -32.0741915 -0.626102E-09  0.160E-03    3.67      12.3  T
   3    -32.0741915  0.710472E-10  0.154E-04    3.67     127.1  T
   4    -32.0741915 -0.189488E-09  0.673E-05    3.67     291.4  T
   5    -32.0741915 -0.361027E-10  0.234E-05    3.67     838.1  T
   6    -32.0741915 -0.677858E-11  0.108E-05    3.67    1817.6  T
   7    -32.0741915 -0.248690E-12  0.291E-06    3.67    6731.8  T
   8    -32.0741915 -0.149214E-12  0.115E-06    3.67   17127.1  T
     SCC iter.                  ...        0 min,  0.073 sec
     gradient                   ...        0 min,  0.002 sec
 * total energy  :   -31.5535620 Eh     change       -0.9410743E-07 Eh
   gradient norm :     0.0000576 Eh/α   predicted    -0.4738249E-07 ( -49.65%)
   displ. norm   :     0.0066660 α      lambda        0.2689620E-07
   maximum displ.:     0.0032353 α      in ANC's #4, #3, #5, ...

........................................................................
.............................. CYCLE   27 ..............................
........................................................................

 iter      E             dE          RMSdq      gap      omega  full diag
   1    -32.0741989 -0.320742E+02  0.221E-03    3.67       0.0  T
   2    -32.0741989 -0.530385E-09  0.129E-03    3.67      15.2  T
   3    -32.0741989  0.335731E-10  0.137E-04    3.67     143.5  T
   4    -32.0741989 -0.115975E-09  0.631E-05    3.67     311.0  T
   5    -32.0741989 -0.329123E-10  0.199E-05    3.67     987.2  T
   6    -32.0741989 -0.481037E-11  0.945E-06    3.67    2074.2  T
   7    -32.0741989 -0.213163E-12  0.261E-06    3.67    7514.2  T
     SCC iter.                  ...        0 min,  0.072 sec
     gradient                   ...        0 min,  0.002 sec
 * total energy  :   -31.5535620 Eh     change        0.6241237E-08 Eh
   gradient norm :     0.0001361 Eh/α   predicted     0.1203571E-07 (  92.84%)
   displ. norm   :     0.0020101 α      lambda       -0.5798456E-07
   maximum displ.:     0.0008865 α      in ANC's #7, #1, #9, ...

........................................................................
.............................. CYCLE   28 ..............................
........................................................................

 iter      E             dE          RMSdq      gap      omega  full diag
   1    -32.0741888 -0.320742E+02  0.128E-03    3.67       0.0  T
   2    -32.0741888 -0.106387E-08  0.687E-04    3.67      28.5  T
   3    -32.0741888 -0.917524E-10  0.163E-04    3.67     120.3  T
   4    -32.0741888 -0.205347E-10  0.633E-05    3.67     309.9  T
   5    -32.0741888 -0.259206E-10  0.162E-05    3.67    1209.8  T
   6    -32.0741888 -0.273559E-11  0.682E-06    3.67    2875.3  T
   7    -32.0741888 -0.120792E-12  0.259E-06    3.67    7571.7  T
     SCC iter.                  ...        0 min,  0.073 sec
     gradient                   ...        0 min,  0.002 sec
 * total energy  :   -31.5535621 Eh     change       -0.5861418E-07 Eh
   gradient norm :     0.0000697 Eh/α   predicted    -0.3150512E-07 ( -46.25%)
   displ. norm   :     0.0033600 α      lambda       -0.4173259E-07
   maximum displ.:     0.0015154 α      in ANC's #1, #4, #9, ...

........................................................................
.............................. CYCLE   29 ..............................
........................................................................

 iter      E             dE          RMSdq      gap      omega  full diag
   1    -32.0741885 -0.320742E+02  0.116E-03    3.67       0.0  T
   2    -32.0741885 -0.293376E-09  0.663E-04    3.67      29.6  T
   3    -32.0741885  0.959943E-11  0.110E-04    3.67     177.7  T
   4    -32.0741885 -0.442952E-10  0.371E-05    3.67     528.1  T
   5    -32.0741885 -0.986944E-11  0.140E-05    3.67    1402.2  T
   6    -32.0741885 -0.112976E-11  0.622E-06    3.67    3155.1  T
   7    -32.0741885 -0.426326E-13  0.219E-06    3.67    8964.2  T
     SCC iter.                  ...        0 min,  0.072 sec
     gradient                   ...        0 min,  0.002 sec
 * total energy  :   -31.5535621 Eh     change       -0.4303815E-07 Eh
   gradient norm :     0.0000397 Eh/α   predicted    -0.2161267E-07 ( -49.78%)
   displ. norm   :     0.0033600 α      lambda        0.0000000E+00
   maximum displ.:     0.0015154 α      in ANC's #1, #4, #9, ...

   *** GEOMETRY OPTIMIZATION CONVERGED AFTER 29 ITERATIONS ***

------------------------------------------------------------------------
 total energy gain   :        -0.0060758 Eh       -3.8126 kcal/mol
 total RMSD          :         0.3800375 a0        0.2011 Å
 total power (kW/mol):        -0.5500682 (step)   -7.1822 (real)
------------------------------------------------------------------------

 ANCopt (total)                0 d,  0 h,  0 min,  2.221 sec
 optimizer setup                ...        0 min,  0.000 sec (  0.004%)
 model hessian                  ...        0 min,  0.011 sec (  0.485%)
 ANC generation                 ...        0 min,  0.001 sec (  0.031%)
 coordinate transformation      ...        0 min,  0.000 sec (  0.012%)
 single point calculation       ...        0 min,  2.205 sec ( 99.268%)
 optimization log               ...        0 min,  0.002 sec (  0.083%)
 hessian update                 ...        0 min,  0.000 sec (  0.019%)
 rational function              ...        0 min,  0.002 sec (  0.068%)

================
 final structure:
================
26
 xtb: 6.7.0 (08769fc)
P            1.69889808594240       -0.22102966426472       -3.00808031811287
C            0.47968768292802       -0.03581273705778       -4.40895590429135
H            0.69936008822472       -0.76668060243370       -5.19321494626784
H           -0.51352141538873       -0.24395878859122       -4.00407812086469
C            0.48901304773496        1.38377551795098       -4.96239602050461
H            1.46175702761801        1.64451158621082       -5.37462593965332
H            0.25527700165584        2.09618307912407       -4.17372319313114
H           -0.25263786167203        1.48837543219647       -5.75272931550229
C            1.52538930411536       -2.01161157418777       -2.64198138203146
C            2.57838509887427       -2.62178313968149       -1.96225623286602
C            0.38584605326358       -2.76073545502741       -2.91016569901540
C            2.51350183345420       -3.95252788458551       -1.59888420473910
C            0.32081659348818       -4.09458746485610       -2.54538380359395
C            1.38304030738021       -4.69671287513129       -1.89471789021099
H            3.45781102017780       -2.04181603928698       -1.71839810887478
H           -0.45982112660965       -2.31334527867857       -3.40961882477883
H            3.34327328476163       -4.41062290525640       -1.07972700793450
H           -0.56829383720095       -4.66619611148170       -2.77105275644063
H            1.32837103349782       -5.73797867954772       -1.61286359619638
C            3.27909124596788       -0.31027826927697       -4.02305415236970
H            3.52532747578506       -1.35706646376834       -4.21757683328533
H            3.09130062558864        0.17929238189247       -4.98078713559947
C            4.43739742041826        0.38827388928464       -3.32090002665228
H            4.65422391228658       -0.08003929086240       -2.36316280856183
H            4.19279634882480        1.43222931578788       -3.13536721084630
H            5.33697374888289        0.34682402152875       -3.93348056767471
 
 Bond Distances (Angstroems)
 ---------------------------
P1-C2=1.8663         P1-C9=1.8358         P1-C20=1.8802        C2-P1=1.8663         C2-H3=1.0943         C2-H4=1.0926         
C2-C5=1.5237         H3-C2=1.0943         H4-C2=1.0926         C5-C2=1.5237         C5-H6=1.0882         C5-H7=1.0882         
C5-H8=1.0889         H6-C5=1.0882         H7-C5=1.0882         H8-C5=1.0889         C9-P1=1.8358         C9-C10=1.3940        
C9-C11=1.3898        C10-C9=1.3940        C10-C12=1.3810       C10-H15=1.0813       C11-C9=1.3898        C11-C13=1.3844       
C11-H16=1.0792       C12-C10=1.3810       C12-C14=1.3854       C12-H17=1.0807       C13-C11=1.3844       C13-C14=1.3836       
C13-H18=1.0808       C14-C12=1.3854       C14-C13=1.3836       C14-H19=1.0801       H15-C10=1.0813       H16-C11=1.0792       
H17-C12=1.0807       H18-C13=1.0808       H19-C14=1.0801       C20-P1=1.8802        C20-H21=1.0928       C20-H22=1.0919       
C20-C23=1.5240       H21-C20=1.0928       H22-C20=1.0919       C23-C20=1.5240       C23-H24=1.0879       C23-H25=1.0882       
C23-H26=1.0891       H24-C23=1.0879       H25-C23=1.0882       H26-C23=1.0891       
 C  H  Rav=1.0869 sigma=0.0050  Rmin=1.0792  Rmax=1.0943    15
 C  C  Rav=1.4207 sigma=0.0597  Rmin=1.3810  Rmax=1.5240     8
 P  C  Rav=1.8608 sigma=0.0185  Rmin=1.8358  Rmax=1.8802     3
 
 selected bond angles (degree)
 --------------------
C9-P1-C2=100.65                C20-P1-C2= 98.54               C20-P1-C9= 98.09               H3-C2-P1=109.91                
H4-C2-P1=107.27                H4-C2-H3=108.71                C5-C2-P1=111.17                C5-C2-H3=111.14                
C5-C2-H4=108.52                H6-C5-C2=111.49                H7-C5-C2=110.21                H7-C5-H6=108.04                
H8-C5-C2=110.42                H8-C5-H6=108.11                H8-C5-H7=108.47                C10-C9-P1=116.92               
C11-C9-P1=124.38               C11-C9-C10=118.52              C12-C10-C9=120.97              H15-C10-C9=119.31              
H15-C10-C12=119.72             
 
 selected dihedral angles (degree)
 ---------------------------------
H3-C2-P1-C9=306.72            H3-C2-P1-C20= 46.68           H4-C2-P1-C9= 64.74            H4-C2-P1-C20=164.71           
C5-C2-P1-C9=183.24            C5-C2-P1-C20=283.20           H6-C5-C2-P1= 61.94            H6-C5-C2-H3=299.17            
H6-C5-C2-H4=179.68            H7-C5-C2-P1=301.98            H7-C5-C2-H3=179.20            H7-C5-C2-H4= 59.71            
H8-C5-C2-P1=182.15            H8-C5-C2-H3= 59.38            H8-C5-C2-H4=299.89            C10-C9-P1-C2=159.22           
C10-C9-P1-C20= 58.89          C11-C9-P1-C2=334.37           C11-C9-P1-C20=234.04          C12-C10-C9-P1=177.49          
C12-C10-C9-C11=  2.05         H15-C10-C9-P1=357.43          H15-C10-C9-C11=181.99         
           -------------------------------------------------
          |                Final Singlepoint                |
           -------------------------------------------------

          ...................................................
          :                      SETUP                      :
          :.................................................:
          :  # basis functions                  65          :
          :  # atomic orbitals                  64          :
          :  # shells                           38          :
          :  # electrons                        60          :
          :  max. iterations                  5000          :
          :  Hamiltonian                  GFN2-xTB          :
          :  restarted?                      false          :
          :  GBSA solvation                  false          :
          :  PC potential                    false          :
          :  electronic temp.          300.0000000     K    :
          :  accuracy                    0.0100000          :
          :  -> integral cutoff          0.4500000E+02      :
          :  -> integral neglect         0.1000000E-09      :
          :  -> SCF convergence          0.1000000E-07 Eh   :
          :  -> wf. convergence          0.1000000E-05 e    :
          :  Broyden damping             0.4000000          :
          :  net charge                          0          :
          :  unpaired electrons                  0          :
          ...................................................

 iter      E             dE          RMSdq      gap      omega  full diag
   1    -32.0741885 -0.320742E+02  0.691E-07    3.67       0.0  T
   2    -32.0741885  0.710543E-14  0.262E-07    3.67   74787.6  T
   3    -32.0741885  0.710543E-14  0.216E-07    3.67   90675.3  T

   *** convergence criteria satisfied after 3 iterations ***

         #    Occupation            Energy/Eh            Energy/eV
      -------------------------------------------------------------
         1        2.0000           -0.6583885             -17.9157
       ...           ...                  ...                  ...
        24        2.0000           -0.4386819             -11.9371
        25        2.0000           -0.4243695             -11.5477
        26        2.0000           -0.4142260             -11.2717
        27        2.0000           -0.4088774             -11.1261
        28        2.0000           -0.4025478             -10.9539
        29        2.0000           -0.3985774             -10.8458
        30        2.0000           -0.3641649              -9.9094 (HOMO)
        31                         -0.2294613              -6.2440 (LUMO)
        32                         -0.2213331              -6.0228
        33                         -0.1594990              -4.3402
        34                         -0.1527325              -4.1561
        35                         -0.0941193              -2.5611
       ...                                ...                  ...
        64                          0.7773646              21.1532
      -------------------------------------------------------------
                  HL-Gap            0.1347036 Eh            3.6655 eV
             Fermi-level           -0.2968131 Eh           -8.0767 eV

 SCC (total)                   0 d,  0 h,  0 min,  0.073 sec
 SCC setup                      ...        0 min,  0.000 sec (  0.073%)
 Dispersion                     ...        0 min,  0.000 sec (  0.084%)
 classical contributions        ...        0 min,  0.000 sec (  0.011%)
 integral evaluation            ...        0 min,  0.001 sec (  0.891%)
 iterations                     ...        0 min,  0.071 sec ( 96.516%)
 molecular gradient             ...        0 min,  0.002 sec (  2.308%)
 printout                       ...        0 min,  0.000 sec (  0.091%)

         :::::::::::::::::::::::::::::::::::::::::::::::::::::
         ::                     SUMMARY                     ::
         :::::::::::::::::::::::::::::::::::::::::::::::::::::
         :: total energy             -31.553562132738 Eh    ::
         :: gradient norm              0.000039663488 Eh/a0 ::
         :: HOMO-LUMO gap              3.665471535514 eV    ::
         ::.................................................::
         :: SCC energy               -32.074085494457 Eh    ::
         :: -> isotropic ES            0.004292781502 Eh    ::
         :: -> anisotropic ES          0.006226115165 Eh    ::
         :: -> anisotropic XC          0.021195578455 Eh    ::
         :: -> dispersion             -0.023366801882 Eh    ::
         :: repulsion energy           0.520523361719 Eh    ::
         :: add. restraining           0.000000000000 Eh    ::
         :: total charge               0.000000000000 e     ::
         :::::::::::::::::::::::::::::::::::::::::::::::::::::

           ------------------------------------------------- 
          |                Numerical Hessian                |
           ------------------------------------------------- 
step length          :   0.00500
SCC accuracy         :   0.30000
Hessian scale factor :   1.00000
frozen atoms in %    :   0.00000    0
RMS gradient         :   0.00004
estimated CPU  time      1.08 min
estimated wall time      0.14 min

writing file <hessian>.

 projected vibrational frequencies (cm⁻¹)
eigval :       -0.00    -0.00     0.00     0.00     0.00     0.00
eigval :       17.85    42.97    83.12   122.34   136.33   169.71
eigval :      197.95   226.62   232.66   268.71   286.30   330.14
eigval :      360.10   406.24   471.55   586.09   651.44   658.16
eigval :      683.95   697.40   734.96   755.83   780.27   868.28
eigval :      892.45   924.04   930.64   968.38   983.40   995.59
eigval :     1011.59  1018.81  1069.58  1075.04  1086.09  1115.54
eigval :     1123.14  1181.80  1202.32  1226.32  1228.55  1250.51
eigval :     1257.12  1283.38  1317.01  1409.14  1413.45  1421.41
eigval :     1442.46  1448.16  1458.65  1497.36  1499.46  1500.73
eigval :     1502.76  1577.45  1589.03  2927.94  2947.97  2956.09
eigval :     2963.20  3012.61  3014.45  3023.95  3024.93  3032.72
eigval :     3033.29  3063.64  3068.79  3075.28  3087.04  3093.52
           -------------------------------------------------
          |                Property Printout                |
           -------------------------------------------------

    * Orbital Energies and Occupations

         #    Occupation            Energy/Eh            Energy/eV
      -------------------------------------------------------------
         1        2.0000           -0.6583885             -17.9157
       ...           ...                  ...                  ...
        18        2.0000           -0.4768845             -12.9767
        19        2.0000           -0.4745694             -12.9137
        20        2.0000           -0.4633608             -12.6087
        21        2.0000           -0.4609513             -12.5431
        22        2.0000           -0.4526817             -12.3181
        23        2.0000           -0.4453407             -12.1183
        24        2.0000           -0.4386819             -11.9371
        25        2.0000           -0.4243695             -11.5477
        26        2.0000           -0.4142260             -11.2717
        27        2.0000           -0.4088774             -11.1261
        28        2.0000           -0.4025478             -10.9539
        29        2.0000           -0.3985774             -10.8458
        30        2.0000           -0.3641649              -9.9094 (HOMO)
        31                         -0.2294613              -6.2440 (LUMO)
        32                         -0.2213331              -6.0228
        33                         -0.1594990              -4.3402
        34                         -0.1527325              -4.1561
        35                         -0.0941193              -2.5611
        36                          0.0005655               0.0154
        37                          0.0608787               1.6566
        38                          0.0877091               2.3867
        39                          0.1129568               3.0737
        40                          0.1189033               3.2355
        41                          0.1334888               3.6324
       ...                                ...                  ...
        64                          0.7773646              21.1532
      -------------------------------------------------------------
                  HL-Gap            0.1347036 Eh            3.6655 eV
             Fermi-level           -0.2968131 Eh           -8.0767 eV

     #   Z          covCN         q      C6AA      α(0)
     1  15 P        3.040    -0.098   164.681    23.053
     2   6 C        3.748    -0.048    21.507     6.615
     3   1 H        0.925     0.043     2.412     2.429
     4   1 H        0.926     0.042     2.424     2.435
     5   6 C        3.818    -0.098    22.345     6.727
     6   1 H        0.925     0.036     2.499     2.472
     7   1 H        0.925     0.042     2.416     2.431
     8   1 H        0.925     0.033     2.541     2.493
     9   6 C        2.915     0.006    27.896     8.661
    10   6 C        3.017    -0.031    28.749     8.795
    11   6 C        2.962    -0.034    28.834     8.808
    12   6 C        2.918    -0.030    28.757     8.794
    13   6 C        2.919    -0.030    28.755     8.793
    14   6 C        2.920    -0.031    28.777     8.797
    15   1 H        0.925     0.035     2.513     2.479
    16   1 H        0.926     0.031     2.568     2.506
    17   1 H        0.926     0.029     2.606     2.524
    18   1 H        0.926     0.028     2.612     2.527
    19   1 H        0.926     0.028     2.609     2.526
    20   6 C        3.747    -0.050    21.538     6.619
    21   1 H        0.925     0.042     2.424     2.435
    22   1 H        0.925     0.043     2.407     2.426
    23   6 C        3.808    -0.097    22.347     6.729
    24   1 H        0.925     0.037     2.493     2.469
    25   1 H        0.925     0.041     2.442     2.444
    26   1 H        0.925     0.031     2.571     2.507

 Mol. C6AA /au·bohr⁶  :       7600.133989
 Mol. C8AA /au·bohr⁸  :     202550.787755
 Mol. α(0) /au        :        139.495089


Wiberg/Mayer (AO) data.
largest (>0.10) Wiberg bond orders for each atom

 ---------------------------------------------------------------------------
     #   Z sym  total        # sym  WBO       # sym  WBO       # sym  WBO
 ---------------------------------------------------------------------------
     1  15 P    3.356 --     2 C    1.025     9 C    1.022    20 C    1.008
     2   6 C    3.994 --     1 P    1.025     5 C    1.016     4 H    0.955
                             3 H    0.954
     3   1 H    0.998 --     2 C    0.954
     4   1 H    0.998 --     2 C    0.955
     5   6 C    3.996 --     2 C    1.016     7 H    0.985     8 H    0.984
                             6 H    0.982
     6   1 H    0.999 --     5 C    0.982
     7   1 H    0.998 --     5 C    0.985
     8   1 H    0.998 --     5 C    0.984
     9   6 C    3.981 --    11 C    1.402    10 C    1.389     1 P    1.022
                            14 C    0.106
    10   6 C    3.992 --    12 C    1.456     9 C    1.389    15 H    0.961
                            13 C    0.109
    11   6 C    3.992 --    13 C    1.441     9 C    1.402    16 H    0.963
                            12 C    0.107
    12   6 C    3.992 --    10 C    1.456    14 C    1.428    17 H    0.970
                            11 C    0.107
    13   6 C    3.993 --    11 C    1.441    14 C    1.441    18 H    0.970
                            10 C    0.109
    14   6 C    3.990 --    13 C    1.441    12 C    1.428    19 H    0.971
                             9 C    0.106
    15   1 H    0.999 --    10 C    0.961
    16   1 H    0.999 --    11 C    0.963
    17   1 H    0.999 --    12 C    0.970
    18   1 H    0.999 --    13 C    0.970
    19   1 H    0.998 --    14 C    0.971
    20   6 C    3.996 --    23 C    1.019     1 P    1.008    21 H    0.958
                            22 H    0.956
    21   1 H    0.998 --    20 C    0.958
    22   1 H    0.998 --    20 C    0.956
    23   6 C    3.997 --    20 C    1.019    25 H    0.985    26 H    0.985
                            24 H    0.983
    24   1 H    0.999 --    23 C    0.983
    25   1 H    0.998 --    23 C    0.985
    26   1 H    0.998 --    23 C    0.985
 ---------------------------------------------------------------------------

Topologies differ in total number of bonds
Writing topology from bond orders to xtbtopo.mol

molecular dipole:
                 x           y           z       tot (Debye)
 q only:        0.058       0.048      -0.300
   full:        0.070      -0.212      -0.576       1.570
molecular quadrupole (traceless):
                xx          xy          yy          xz          yz          zz
 q only:       -0.240       0.202      -2.285      -0.949      -0.912       2.525
  q+dip:       -0.798      -0.784      -2.460      -0.705       0.239       3.258
   full:       -1.101      -0.955      -3.386      -1.856       0.376       4.487

           -------------------------------------------------
          |                Geometry Summary                 |
           -------------------------------------------------

      molecular mass/u    :      166.2002322
   center of mass at/Å    :        1.7526921      -1.4809746      -3.0738133
  moments of inertia/u·Å² :        0.3230483E+03   0.7975429E+03   0.1059692E+04
rotational constants/cm⁻¹ :        0.5218302E-01   0.2113696E-01   0.1590804E-01

 * 23 selected distances

     #   Z          #   Z                                           value/Å
     2   6 C        3   1 H                                       1.0942972
     2   6 C        4   1 H                                       1.0925728
     2   6 C        5   6 C                                       1.5236844
     5   6 C        6   1 H                                       1.0881856
     5   6 C        7   1 H                                       1.0881921
     5   6 C        8   1 H                                       1.0888591
     9   6 C       10   6 C                                       1.3939642
     9   6 C       11   6 C                                       1.3898448
    10   6 C       12   6 C                                       1.3809891
    11   6 C       13   6 C                                       1.3843613
    12   6 C       14   6 C                                       1.3853781
    13   6 C       14   6 C                                       1.3835609
    10   6 C       15   1 H                                       1.0813042
    11   6 C       16   1 H                                       1.0792426 (min)
    12   6 C       17   1 H                                       1.0806924
    13   6 C       18   1 H                                       1.0808240
    14   6 C       19   1 H                                       1.0801228
    20   6 C       21   1 H                                       1.0928116
    20   6 C       22   1 H                                       1.0918779
    20   6 C       23   6 C                                       1.5240306 (max)
    23   6 C       24   1 H                                       1.0879300
    23   6 C       25   1 H                                       1.0881614
    23   6 C       26   1 H                                       1.0891331

 * 2 distinct bonds (by element types)

   Z      Z             #   av. dist./Å        max./Å        min./Å
   1 H    6 C          15     1.0869471     1.0942972     1.0792426
   6 C    6 C           8     1.4207267     1.5240306     1.3809891

           -------------------------------------------------
          |               Frequency Printout                |
           -------------------------------------------------
 projected vibrational frequencies (cm⁻¹)
eigval :       -0.00    -0.00     0.00     0.00     0.00     0.00
eigval :       17.85    42.97    83.12   122.34   136.33   169.71
eigval :      197.95   226.62   232.66   268.71   286.30   330.14
eigval :      360.10   406.24   471.55   586.09   651.44   658.16
eigval :      683.95   697.40   734.96   755.83   780.27   868.28
eigval :      892.45   924.04   930.64   968.38   983.40   995.59
eigval :     1011.59  1018.81  1069.58  1075.04  1086.09  1115.54
eigval :     1123.14  1181.80  1202.32  1226.32  1228.55  1250.51
eigval :     1257.12  1283.38  1317.01  1409.14  1413.45  1421.41
eigval :     1442.46  1448.16  1458.65  1497.36  1499.46  1500.73
eigval :     1502.76  1577.45  1589.03  2927.94  2947.97  2956.09
eigval :     2963.20  3012.61  3014.45  3023.95  3024.93  3032.72
eigval :     3033.29  3063.64  3068.79  3075.28  3087.04  3093.52
 reduced masses (amu)
   1: 13.74   2: 14.41   3: 11.55   4: 11.68   5: 14.38   6: 10.44   7:  9.67   8:  8.58
   9: 10.80  10:  9.70  11:  6.88  12:  4.97  13:  6.00  14:  8.87  15: 10.18  16: 10.78
  17: 10.27  18: 12.89  19:  8.86  20: 18.49  21: 13.12  22: 11.17  23: 12.52  24: 10.98
  25: 13.15  26: 15.67  27:  3.66  28:  5.74  29:  4.61  30:  3.35  31:  3.57  32:  4.16
  33:  3.00  34: 10.94  35:  2.73  36:  3.15  37:  3.53  38:  4.28  39:  9.57  40:  9.26
  41:  8.41  42:  8.44  43:  4.47  44:  1.30  45:  2.02  46:  3.71  47:  3.47  48:  4.10
  49:  4.01  50:  3.29  51: 11.91  52:  2.86  53:  2.96  54:  8.51  55:  2.14  56:  2.97
  57:  7.27  58:  1.54  59:  1.56  60:  1.55  61:  1.54  62: 11.43  63: 11.44  64:  1.79
  65:  1.84  66:  1.69  67:  1.64  68:  1.83  69:  1.90  70:  1.90  71:  1.95  72:  1.35
  73:  1.37  74:  1.77  75:  1.77  76:  1.85  77:  1.88  78:  1.87
 IR intensities (km·mol⁻¹)
   1:  0.08   2:  0.03   3:  0.10   4:  0.05   5:  0.01   6:  0.15   7:  0.11   8:  0.03
   9:  0.26  10:  0.10  11:  0.27  12:  0.18  13:  0.23  14:  0.08  15:  0.26  16:  0.17
  17:  0.41  18:  0.68  19:  0.03  20:  1.13  21:  4.22  22:  0.05  23:  7.72  24: 11.46
  25:  0.36  26: 25.87  27: 26.44  28: 18.06  29: 19.74  30:  0.13  31:  0.00  32:  0.02
  33:  0.01  34:  2.71  35:  4.13  36:  2.17  37:  2.68  38:  1.11  39:  2.32  40:  1.79
  41:  0.04  42:  0.78  43:  0.10  44:  0.01  45:  0.86  46:  2.44  47:  1.53  48:  4.39
  49: 11.68  50:  0.13  51:  0.29  52:  2.88  53:  2.28  54:  0.58  55:  0.27  56:  1.14
  57:  0.17  58:  1.34  59:  2.29  60:  3.73  61:  0.21  62:  0.34  63:  6.49  64: 18.12
  65: 18.50  66: 11.36  67: 17.75  68: 51.63  69: 47.26  70: 28.10  71: 32.54  72: 24.54
  73: 18.63  74: 10.23  75:  5.11  76: 53.44  77: 76.41  78: 29.03
 Raman intensities (Ä⁴*amu⁻¹)
   1:  0.00   2:  0.00   3:  0.00   4:  0.00   5:  0.00   6:  0.00   7:  0.00   8:  0.00
   9:  0.00  10:  0.00  11:  0.00  12:  0.00  13:  0.00  14:  0.00  15:  0.00  16:  0.00
  17:  0.00  18:  0.00  19:  0.00  20:  0.00  21:  0.00  22:  0.00  23:  0.00  24:  0.00
  25:  0.00  26:  0.00  27:  0.00  28:  0.00  29:  0.00  30:  0.00  31:  0.00  32:  0.00
  33:  0.00  34:  0.00  35:  0.00  36:  0.00  37:  0.00  38:  0.00  39:  0.00  40:  0.00
  41:  0.00  42:  0.00  43:  0.00  44:  0.00  45:  0.00  46:  0.00  47:  0.00  48:  0.00
  49:  0.00  50:  0.00  51:  0.00  52:  0.00  53:  0.00  54:  0.00  55:  0.00  56:  0.00
  57:  0.00  58:  0.00  59:  0.00  60:  0.00  61:  0.00  62:  0.00  63:  0.00  64:  0.00
  65:  0.00  66:  0.00  67:  0.00  68:  0.00  69:  0.00  70:  0.00  71:  0.00  72:  0.00
  73:  0.00  74:  0.00  75:  0.00  76:  0.00  77:  0.00  78:  0.00
 output can be read by thermo (or use thermo option).
 writing <g98.out> molden fake output.
 recommended (thermochemical) frequency scaling factor: 1.0
           -------------------------------------------------
          |             Thermodynamic Functions             |
           -------------------------------------------------

Molecule has no symmetry elements
It seems to be the C1 point group
c1  symmetry found (for desy threshold:  0.10E+00) used in thermo

          ...................................................
          :                      SETUP                      :
          :.................................................:
          :  # frequencies                          72      :
          :  # imaginary freq.                       0      :
          :  linear?                             false      :
          :  only rotor calc.                    false      :
          :  symmetry                               c1      :
          :  rotational number                       1      :
          :  scaling factor                  1.0000000      :
          :  rotor cutoff                   50.0000000 cm⁻¹ :
          :  imag. cutoff                  -20.0000000 cm⁻¹ :
          :.................................................:

    mode    ω/cm⁻¹     T·S(HO)/kcal·mol⁻¹    T·S(FR)/kcal·mol⁻¹   T·S(vib)
   ------------------------------------------------------------------------
       1     17.85    -2.04540 (  1.60%)    -1.36134 ( 98.40%)    -1.37227
       2     42.97    -1.52575 ( 35.29%)    -1.10130 ( 64.71%)    -1.25108
       3     83.12    -1.13769 ( 88.42%)    -0.90590 ( 11.58%)    -1.11085
       4    122.34    -0.91325 ( 97.29%)    -0.79142 (  2.71%)    -0.90994
       5    136.33    -0.85113 ( 98.22%)    -0.75935 (  1.78%)    -0.84950
       6    169.71    -0.72711 ( 99.25%)    -0.69449 (  0.75%)    -0.72686
       7    197.95    -0.64163 ( 99.59%)    -0.64888 (  0.41%)    -0.64166
       8    226.62    -0.56815 ( 99.76%)    -0.60883 (  0.24%)    -0.56825
       9    232.66    -0.55406 ( 99.79%)    -0.60103 (  0.21%)    -0.55416
      10    268.71    -0.47837 ( 99.88%)    -0.55836 (  0.12%)    -0.47847
      11    286.30    -0.44595 ( 99.91%)    -0.53958 (  0.09%)    -0.44604
   ------------------------------------------------------------------------

   temp. (K)  partition function   enthalpy   heat capacity  entropy
                                   cal/mol     cal/K/mol   cal/K/mol   J/K/mol
 298.15  VIB  0.336E+05             6224.415     39.185     38.302
         ROT  0.126E+07              888.752      2.981     30.899
         INT  0.424E+11             7113.168     42.166     69.201
         TR   0.207E+28             1481.254      4.968     41.214
         TOT                        8594.4217    47.1343   110.4146   461.9748

       T/K    H(0)-H(T)+PV         H(T)/Eh          T*S/Eh         G(T)/Eh
   ------------------------------------------------------------------------
    298.15    0.136961E-01    0.232390E+00    0.524615E-01    0.179929E+00
   ------------------------------------------------------------------------

         :::::::::::::::::::::::::::::::::::::::::::::::::::::
         ::                  THERMODYNAMIC                  ::
         :::::::::::::::::::::::::::::::::::::::::::::::::::::
         :: total free energy         -31.373633269506 Eh   ::
         ::.................................................::
         :: total energy              -31.553562132738 Eh   ::
         :: zero point energy           0.218694327969 Eh   ::
         :: G(RRHO) w/o ZPVE           -0.038765464737 Eh   ::
         :: G(RRHO) contrib.            0.179928863232 Eh   ::
         :::::::::::::::::::::::::::::::::::::::::::::::::::::

optimized geometry written to: xtbopt.xyz


           -------------------------------------------------
          | TOTAL ENERGY              -31.553562132738 Eh   |
          | TOTAL ENTHALPY            -31.321171722027 Eh   |
          | TOTAL FREE ENERGY         -31.373633269506 Eh   |
          | GRADIENT NORM               0.000039664233 Eh/α |
          | HOMO-LUMO GAP               3.665471510354 eV   |
           -------------------------------------------------

------------------------------------------------------------------------
 * finished run on 2025/07/14 at 11:28:48.799     
------------------------------------------------------------------------
 total:
 * wall-time:     0 d,  0 h,  0 min,  5.587 sec
 *  cpu-time:     0 d,  0 h,  0 min, 54.204 sec
 * ratio c/w:     9.701 speedup
 SCF:
 * wall-time:     0 d,  0 h,  0 min,  0.086 sec
 *  cpu-time:     0 d,  0 h,  0 min,  1.035 sec
 * ratio c/w:    11.975 speedup
 ANC optimizer:
 * wall-time:     0 d,  0 h,  0 min,  2.295 sec
 *  cpu-time:     0 d,  0 h,  0 min, 27.478 sec
 * ratio c/w:    11.973 speedup
 analytical hessian:
 * wall-time:     0 d,  0 h,  0 min,  3.197 sec
 *  cpu-time:     0 d,  0 h,  0 min, 25.592 sec
 * ratio c/w:     8.006 speedup

