      -----------------------------------------------------------      
     |                   =====================                   |     
     |                           x T B                           |     
     |                   =====================                   |     
     |                         S. Grimme                         |     
     |          Mulliken Center for Theoretical Chemistry        |     
     |                    University of Bonn                     |     
      -----------------------------------------------------------      

   * xtb version 6.7.0 (08769fc) compiled by 'albert@albert-system' on 2024-03-04

   xtb is free software: you can redistribute it and/or modify it under
   the terms of the GNU Lesser General Public License as published by
   the Free Software Foundation, either version 3 of the License, or
   (at your option) any later version.
   
   xtb is distributed in the hope that it will be useful,
   but WITHOUT ANY WARRANTY; without even the implied warranty of
   MERCHANTABILITY or FITNESS FOR A PARTICULAR PURPOSE.  See the
   GNU Lesser General Public License for more details.
   
   Cite this work as:
   * C. Bannwarth, E. Caldeweyher, S. Ehlert, A. Hansen, P. Pracht,
     J. Seibert, S. Spicher, S. Grimme, WIREs Comput. Mol. Sci., 2020, 11,
     e01493. DOI: 10.1002/wcms.1493
   
   for GFN2-xTB:
   * C. Bannwarth, S. Ehlert and S. Grimme., J. Chem. Theory Comput., 2019,
     15, 1652-1671. DOI: 10.1021/acs.jctc.8b01176
   for GFN1-xTB:
   * S. Grimme, C. Bannwarth, P. Shushkov, J. Chem. Theory Comput., 2017,
     13, 1989-2009. DOI: 10.1021/acs.jctc.7b00118
   for GFN0-xTB:
   * P. Pracht, E. Caldeweyher, S. Ehlert, S. Grimme, ChemRxiv, 2019, preprint.
     DOI: 10.26434/chemrxiv.8326202.v1
   for GFN-FF:
   * S. Spicher and S. Grimme, Angew. Chem. Int. Ed., 2020, 59, 15665-15673.
     DOI: 10.1002/anie.202004239
   
   for ALPB and GBSA implicit solvation:
   * S. Ehlert, M. Stahn, S. Spicher, S. Grimme, J. Chem. Theory Comput.,
     2021, 17, 4250-4261. DOI: 10.1021/acs.jctc.1c00471
   
   for ddCOSMO and CPCM-X implicit solvation:
   * M. Stahn, S. Ehlert, S. Grimme, J. Phys. Chem. A,
     2023, XX, XXXX-XXXX. DOI: 10.1021/acs.jpca.3c04382
   
   for DFT-D4:
   * E. Caldeweyher, C. Bannwarth and S. Grimme, J. Chem. Phys., 2017,
     147, 034112. DOI: 10.1063/1.4993215
   * E. Caldeweyher, S. Ehlert, A. Hansen, H. Neugebauer, S. Spicher,
     C. Bannwarth and S. Grimme, J. Chem. Phys., 2019, 150, 154122.
     DOI: 10.1063/1.5090222
   * E. Caldeweyher, J.-M. Mewes, S. Ehlert and S. Grimme, Phys. Chem. Chem. Phys.
     2020, 22, 8499-8512. DOI: 10.1039/D0CP00502A
   
   for sTDA-xTB:
   * S. Grimme and C. Bannwarth, J. Chem. Phys., 2016, 145, 054103.
     DOI: 10.1063/1.4959605
   
   in the mass-spec context:
   * V. Asgeirsson, C. Bauer and S. Grimme, Chem. Sci., 2017, 8, 4879.
     DOI: 10.1039/c7sc00601b
   * J. Koopman and S. Grimme, ACS Omega 2019, 4, 12, 15120-15133.
     DOI: 10.1021/acsomega.9b02011
   
   for metadynamics refer to:
   * S. Grimme, J. Chem. Theory Comput., 2019, 155, 2847-2862
     DOI: 10.1021/acs.jctc.9b00143
   
   for SPH calculations refer to:
   * S. Spicher and S. Grimme, J. Chem. Theory Comput., 2021, 17, 1701-1714
     DOI: 10.1021/acs.jctc.0c01306
   
   for ONIOM refer to:
   * C. Plett, A. Katbashev, S. Ehlert, S. Grimme, M. Bursch,
     Phys. Chem. Chem. Phys., 2023, 25, 17860-17868. DOI: 10.1039/D3CP02178E
   
   for DIPRO refer to:
   * J. Kohn, N. Gildemeister, S. Grimme, D. Fazzi, A. Hansen,
     J. Chem. Phys., 2023, just accepted.
   
   for PTB refer to:
   * S. Grimme, M. Mueller, A. Hansen, J. Chem. Phys., 2023, 158, 124111.
     DOI: 10.1063/5.0137838
   
   with help from (in alphabetical order)
   P. Atkinson, C. Bannwarth, F. Bohle, G. Brandenburg, E. Caldeweyher
   M. Checinski, S. Dohm, S. Ehlert, S. Ehrlich, I. Gerasimov, C. Hölzer
   A. Katbashev, J. Kohn, J. Koopman, C. Lavigne, S. Lehtola, F. März, M. Müller,
   F. Musil, H. Neugebauer, J. Pisarek, C. Plett, P. Pracht, F. Pultar,
   J. Seibert, P. Shushkov, S. Spicher, M. Stahn, M. Steiner, T. Strunk,
   J. Stückrath, T. Rose, and J. Unsleber
   
 * started run on 2025/07/14 at 11:30:14.840     
   ID    Z sym.   atoms
    1   15 P      1
    2    6 C      2, 5, 9-14, 20, 23
    3    1 H      3, 4, 6-8, 15-19, 21, 22, 24-26

           -------------------------------------------------
          |                Calculation Setup                |
           -------------------------------------------------

          program call               : /home/minenky/programs/xtb/xtb-dist/bin/xtb m1_00_PEt2Ph-PBE0-D3-TZ-uniMM_34.xyz --charge 0 --T --ohess extreme --cycles 5000 --acc 0.01 --iterations 5000
          coordinate file            : m1_00_PEt2Ph-PBE0-D3-TZ-uniMM_34.xyz
          omp threads                :                    12

########################################################################
[WARNING] Please study the warnings concerning your input carefully
-1- prog_main_parseArguments: Unknown option '--T' provided
########################################################################

           -------------------------------------------------
          |                 G F N 2 - x T B                 |
           -------------------------------------------------

        Reference                      10.1021/acs.jctc.8b01176
      * Hamiltonian:
        H0-scaling (s, p, d)           1.850000    2.230000    2.230000
        zeta-weighting                 0.500000
      * Dispersion:
        s8                             2.700000
        a1                             0.520000
        a2                             5.000000
        s9                             5.000000
      * Repulsion:
        kExp                           1.500000    1.000000
        rExp                           1.000000
      * Coulomb:
        alpha                          2.000000
        third order                    shell-resolved
        anisotropic                    true
        a3                             3.000000
        a5                             4.000000
        cn-shift                       1.200000
        cn-exp                         4.000000
        max-rad                        5.000000


          ...................................................
          :                      SETUP                      :
          :.................................................:
          :  # basis functions                  65          :
          :  # atomic orbitals                  64          :
          :  # shells                           38          :
          :  # electrons                        60          :
          :  max. iterations                  5000          :
          :  Hamiltonian                  GFN2-xTB          :
          :  restarted?                      false          :
          :  GBSA solvation                  false          :
          :  PC potential                    false          :
          :  electronic temp.          300.0000000     K    :
          :  accuracy                    0.0100000          :
          :  -> integral cutoff          0.4500000E+02      :
          :  -> integral neglect         0.1000000E-09      :
          :  -> SCF convergence          0.1000000E-07 Eh   :
          :  -> wf. convergence          0.1000000E-05 e    :
          :  Broyden damping             0.4000000          :
          :  net charge                          0          :
          :  unpaired electrons                  0          :
          ...................................................

 iter      E             dE          RMSdq      gap      omega  full diag
   1    -32.0199540 -0.320200E+02  0.375E+00    4.03       0.0  T
   2    -32.0632443 -0.432903E-01  0.224E+00    3.70       1.0  T
   3    -32.0630424  0.201958E-03  0.844E-01    3.49       1.0  T
   4    -32.0640597 -0.101733E-02  0.264E-01    3.54       1.0  T
   5    -32.0652059 -0.114622E-02  0.116E-01    3.57       1.0  T
   6    -32.0653895 -0.183585E-03  0.436E-02    3.56       1.0  T
   7    -32.0654040 -0.144942E-04  0.143E-02    3.56       1.4  T
   8    -32.0654046 -0.639029E-06  0.640E-03    3.56       3.1  T
   9    -32.0654050 -0.356740E-06  0.156E-03    3.56      12.6  T
  10    -32.0654050 -0.304937E-07  0.431E-04    3.56      45.5  T
  11    -32.0654050 -0.414445E-09  0.207E-04    3.56      94.6  T
  12    -32.0654050 -0.379131E-09  0.537E-05    3.56     365.5  T
  13    -32.0654050 -0.552092E-11  0.137E-05    3.56    1433.3  T
  14    -32.0654050 -0.284217E-13  0.478E-06    3.56    4106.5  T
  15    -32.0654050 -0.270006E-12  0.156E-06    3.56   12561.8  T

   *** convergence criteria satisfied after 15 iterations ***

         #    Occupation            Energy/Eh            Energy/eV
      -------------------------------------------------------------
         1        2.0000           -0.6603894             -17.9701
       ...           ...                  ...                  ...
        24        2.0000           -0.4391237             -11.9492
        25        2.0000           -0.4250262             -11.5656
        26        2.0000           -0.4144969             -11.2790
        27        2.0000           -0.4085880             -11.1182
        28        2.0000           -0.4013322             -10.9208
        29        2.0000           -0.4000456             -10.8858
        30        2.0000           -0.3594870              -9.7821 (HOMO)
        31                         -0.2287003              -6.2233 (LUMO)
        32                         -0.2215927              -6.0298
        33                         -0.1508149              -4.1039
        34                         -0.1427522              -3.8845
        35                         -0.0964079              -2.6234
       ...                                ...                  ...
        64                          0.8000647              21.7709
      -------------------------------------------------------------
                  HL-Gap            0.1307867 Eh            3.5589 eV
             Fermi-level           -0.2940936 Eh           -8.0027 eV

 SCC (total)                   0 d,  0 h,  0 min,  0.088 sec
 SCC setup                      ...        0 min,  0.000 sec (  0.146%)
 Dispersion                     ...        0 min,  0.000 sec (  0.138%)
 classical contributions        ...        0 min,  0.000 sec (  0.011%)
 integral evaluation            ...        0 min,  0.002 sec (  2.176%)
 iterations                     ...        0 min,  0.084 sec ( 95.241%)
 molecular gradient             ...        0 min,  0.002 sec (  2.179%)
 printout                       ...        0 min,  0.000 sec (  0.087%)

         :::::::::::::::::::::::::::::::::::::::::::::::::::::
         ::                     SUMMARY                     ::
         :::::::::::::::::::::::::::::::::::::::::::::::::::::
         :: total energy             -31.550409115152 Eh    ::
         :: gradient norm              0.025772648763 Eh/a0 ::
         :: HOMO-LUMO gap              3.558887893866 eV    ::
         ::.................................................::
         :: SCC energy               -32.065172394865 Eh    ::
         :: -> isotropic ES            0.004060761327 Eh    ::
         :: -> anisotropic ES          0.006560185396 Eh    ::
         :: -> anisotropic XC          0.021318121599 Eh    ::
         :: -> dispersion             -0.024396915665 Eh    ::
         :: repulsion energy           0.514763279713 Eh    ::
         :: add. restraining           0.000000000000 Eh    ::
         :: total charge               0.000000000000 e     ::
         :::::::::::::::::::::::::::::::::::::::::::::::::::::

      ----------------------------------------------------------- 
     |                   =====================                   |
     |                        A N C O P T                        |
     |                   =====================                   |
     |               Approximate Normal Coordinate               |
     |                Rational Function Optimizer                |
      ----------------------------------------------------------- 
      ----------------------------------------------------------- 
     |                   =====================                   |
     |                        A N C O P T                        |
     |                   =====================                   |
     |               Approximate Normal Coordinate               |
     |                Rational Function Optimizer                |
      ----------------------------------------------------------- 

          ...................................................
          :                      SETUP                      :
          :.................................................:
          :   optimization level           extreme          :
          :   max. optcycles                  5000          :
          :   ANC micro-cycles                  20          :
          :   degrees of freedom                72          :
          :.................................................:
          :   RF solver                   davidson          :
          :   write xtbopt.log                true          :
          :   linear?                        false          :
          :   energy convergence         0.5000000E-07 Eh   :
          :   grad. convergence          0.5000000E-04 Eh/α :
          :   maxmium RF displ.          1.0000000          :
          :   Hlow (freq-cutoff)         0.1000000E-01      :
          :   Hmax (freq-cutoff)         5.0000000          :
          :   S6 in model hess.         20.0000000          :
          ...................................................

generating ANC from model Hessian ...
Using Lindh-Hessian (1995)
 Shifting diagonal of input Hessian by   9.667835541054239E-003
 Lowest  eigenvalues of input Hessian
    0.000000    0.000000    0.000000    0.000000    0.000000    0.000000
    0.010000    0.010744    0.010984    0.011588    0.012268    0.013448
    0.015802    0.018237    0.019260    0.020237    0.024465    0.025288
 Highest eigenvalues
    1.347424    1.536044    1.562244    1.864858    1.966395    1.986247
 

........................................................................
.............................. CYCLE    1 ..............................
........................................................................

 iter      E             dE          RMSdq      gap      omega  full diag
   1    -32.0654050 -0.320654E+02  0.689E-07    3.56       0.0  T
   2    -32.0654050 -0.284217E-13  0.420E-07    3.56   46671.8  T
   3    -32.0654050 -0.284217E-13  0.240E-07    3.56   81574.6  T
     SCC iter.                  ...        0 min,  0.074 sec
     gradient                   ...        0 min,  0.002 sec
 * total energy  :   -31.5504091 Eh     change       -0.1136868E-12 Eh
   gradient norm :     0.0257726 Eh/α   predicted     0.0000000E+00 (-100.00%)
   displ. norm   :     0.3683405 α      lambda       -0.3947653E-02
   maximum displ.:     0.2611543 α      in ANC's #1, #6, #2, ...

........................................................................
.............................. CYCLE    2 ..............................
........................................................................

 iter      E             dE          RMSdq      gap      omega  full diag
   1    -32.0733345 -0.320733E+02  0.185E-01    3.64       0.0  T
   2    -32.0733774 -0.428701E-04  0.100E-01    3.65       1.0  T
   3    -32.0733800 -0.259574E-05  0.308E-02    3.66       1.0  T
   4    -32.0733818 -0.177722E-05  0.144E-02    3.66       1.4  T
   5    -32.0733824 -0.637688E-06  0.611E-03    3.66       3.2  T
   6    -32.0733830 -0.598435E-06  0.220E-03    3.66       8.9  T
   7    -32.0733830 -0.547983E-08  0.586E-04    3.66      33.5  T
   8    -32.0733830 -0.311766E-08  0.217E-04    3.66      90.4  T
   9    -32.0733830 -0.574175E-09  0.567E-05    3.66     346.0  T
  10    -32.0733830 -0.225597E-10  0.238E-05    3.66     824.9  T
  11    -32.0733830 -0.298428E-11  0.108E-05    3.66    1816.9  T
  12    -32.0733830 -0.525802E-12  0.397E-06    3.66    4938.6  T
  13    -32.0733830 -0.113687E-12  0.193E-06    3.66   10147.1  T
     SCC iter.                  ...        0 min,  0.076 sec
     gradient                   ...        0 min,  0.002 sec
 * total energy  :   -31.5529645 Eh     change       -0.2555422E-02 Eh
   gradient norm :     0.0105975 Eh/α   predicted    -0.2241662E-02 ( -12.28%)
   displ. norm   :     0.3663323 α      lambda       -0.1567136E-02
   maximum displ.:     0.2411967 α      in ANC's #1, #6, #5, ...

........................................................................
.............................. CYCLE    3 ..............................
........................................................................

 iter      E             dE          RMSdq      gap      omega  full diag
   1    -32.0758498 -0.320758E+02  0.103E-01    3.64       0.0  T
   2    -32.0758536 -0.382384E-05  0.630E-02    3.63       1.0  T
   3    -32.0758530  0.626105E-06  0.109E-02    3.63       1.8  T
   4    -32.0758542 -0.118963E-05  0.320E-03    3.63       6.1  T
   5    -32.0758542 -0.251462E-07  0.162E-03    3.63      12.1  T
   6    -32.0758542 -0.372754E-07  0.671E-04    3.63      29.2  T
   7    -32.0758542 -0.409434E-08  0.230E-04    3.63      85.4  T
   8    -32.0758542 -0.188848E-09  0.680E-05    3.63     288.4  T
   9    -32.0758542 -0.354206E-10  0.284E-05    3.63     690.7  T
  10    -32.0758542 -0.290612E-11  0.111E-05    3.63    1764.1  T
  11    -32.0758542 -0.689226E-12  0.536E-06    3.63    3655.6  T
  12    -32.0758542 -0.113687E-12  0.213E-06    3.63    9199.1  T
     SCC iter.                  ...        0 min,  0.076 sec
     gradient                   ...        0 min,  0.002 sec
 * total energy  :   -31.5540632 Eh     change       -0.1098684E-02 Eh
   gradient norm :     0.0060081 Eh/α   predicted    -0.8887243E-03 ( -19.11%)
   displ. norm   :     0.3514102 α      lambda       -0.8197255E-03
   maximum displ.:     0.2116219 α      in ANC's #1, #5, #6, ...

........................................................................
.............................. CYCLE    4 ..............................
........................................................................

 iter      E             dE          RMSdq      gap      omega  full diag
   1    -32.0740722 -0.320741E+02  0.933E-02    3.64       0.0  T
   2    -32.0740747 -0.259792E-05  0.555E-02    3.64       1.0  T
   3    -32.0740743  0.438569E-06  0.105E-02    3.64       1.9  T
   4    -32.0740752 -0.901598E-06  0.271E-03    3.64       7.2  T
   5    -32.0740752 -0.164285E-08  0.131E-03    3.64      15.0  T
   6    -32.0740752 -0.364647E-07  0.421E-04    3.64      46.6  T
   7    -32.0740753 -0.688438E-09  0.177E-04    3.64     110.5  T
   8    -32.0740753 -0.128821E-09  0.555E-05    3.64     353.7  T
   9    -32.0740753 -0.355840E-10  0.210E-05    3.64     935.9  T
  10    -32.0740753 -0.198952E-11  0.873E-06    3.64    2247.4  T
  11    -32.0740753 -0.440536E-12  0.386E-06    3.64    5078.5  T
     SCC iter.                  ...        0 min,  0.076 sec
     gradient                   ...        0 min,  0.002 sec
 * total energy  :   -31.5546497 Eh     change       -0.5864694E-03 Eh
   gradient norm :     0.0066776 Eh/α   predicted    -0.4604856E-03 ( -21.48%)
   displ. norm   :     0.3044159 α      lambda       -0.4759651E-03
   maximum displ.:     0.1807671 α      in ANC's #1, #5, #3, ...

........................................................................
.............................. CYCLE    5 ..............................
........................................................................

 iter      E             dE          RMSdq      gap      omega  full diag
   1    -32.0736489 -0.320736E+02  0.849E-02    3.64       0.0  T
   2    -32.0736499 -0.108458E-05  0.494E-02    3.63       1.0  T
   3    -32.0736496  0.314378E-06  0.893E-03    3.63       2.2  T
   4    -32.0736502 -0.552662E-06  0.206E-03    3.63       9.5  T
   5    -32.0736502  0.149859E-08  0.124E-03    3.63      15.8  T
   6    -32.0736502 -0.261909E-07  0.518E-04    3.63      37.9  T
   7    -32.0736502 -0.338325E-09  0.126E-04    3.63     156.2  T
   8    -32.0736502 -0.365006E-10  0.421E-05    3.63     466.3  T
   9    -32.0736502 -0.200444E-10  0.128E-05    3.63    1530.0  T
  10    -32.0736502 -0.196110E-11  0.569E-06    3.63    3446.9  T
  11    -32.0736502 -0.191847E-12  0.257E-06    3.63    7621.4  T
     SCC iter.                  ...        0 min,  0.075 sec
     gradient                   ...        0 min,  0.002 sec
 * total energy  :   -31.5549871 Eh     change       -0.3374387E-03 Eh
   gradient norm :     0.0055549 Eh/α   predicted    -0.2600403E-03 ( -22.94%)
   displ. norm   :     0.2318905 α      lambda       -0.2649186E-03
   maximum displ.:     0.1456470 α      in ANC's #5, #1, #3, ...

........................................................................
.............................. CYCLE    6 ..............................
........................................................................

 iter      E             dE          RMSdq      gap      omega  full diag
   1    -32.0745968 -0.320746E+02  0.738E-02    3.64       0.0  T
   2    -32.0745974 -0.653727E-06  0.428E-02    3.64       1.0  T
   3    -32.0745973  0.100414E-06  0.749E-03    3.64       2.6  T
   4    -32.0745976 -0.258637E-06  0.157E-03    3.64      12.5  T
   5    -32.0745976 -0.520117E-10  0.802E-04    3.64      24.4  T
   6    -32.0745976 -0.284516E-08  0.365E-04    3.64      53.7  T
   7    -32.0745976 -0.716916E-09  0.812E-05    3.64     241.7  T
   8    -32.0745976 -0.707345E-10  0.234E-05    3.64     838.9  T
   9    -32.0745976 -0.456168E-11  0.886E-06    3.64    2214.7  T
  10    -32.0745976 -0.689226E-12  0.305E-06    3.64    6439.0  T
     SCC iter.                  ...        0 min,  0.075 sec
     gradient                   ...        0 min,  0.002 sec
 * total energy  :   -31.5551739 Eh     change       -0.1867558E-03 Eh
   gradient norm :     0.0032861 Eh/α   predicted    -0.1395833E-03 ( -25.26%)
   displ. norm   :     0.1731450 α      lambda       -0.1364866E-03
   maximum displ.:     0.1123506 α      in ANC's #5, #1, #3, ...

........................................................................
.............................. CYCLE    7 ..............................
........................................................................

 iter      E             dE          RMSdq      gap      omega  full diag
   1    -32.0758306 -0.320758E+02  0.579E-02    3.64       0.0  T
   2    -32.0758310 -0.401089E-06  0.336E-02    3.64       1.0  T
   3    -32.0758309  0.117987E-06  0.587E-03    3.64       3.3  T
   4    -32.0758311 -0.213488E-06  0.110E-03    3.64      17.8  T
   5    -32.0758311  0.246445E-09  0.638E-04    3.64      30.7  T
   6    -32.0758311 -0.556258E-08  0.275E-04    3.64      71.4  T
   7    -32.0758311 -0.296602E-09  0.726E-05    3.64     270.2  T
   8    -32.0758311 -0.683471E-10  0.238E-05    3.64     822.4  T
   9    -32.0758311 -0.392220E-11  0.976E-06    3.64    2008.6  T
  10    -32.0758311 -0.788702E-12  0.381E-06    3.64    5150.1  T
     SCC iter.                  ...        0 min,  0.074 sec
     gradient                   ...        0 min,  0.002 sec
 * total energy  :   -31.5552724 Eh     change       -0.9855128E-04 Eh
   gradient norm :     0.0022470 Eh/α   predicted    -0.7028947E-04 ( -28.68%)
   displ. norm   :     0.1565930 α      lambda       -0.8707875E-04
   maximum displ.:     0.0955167 α      in ANC's #5, #1, #9, ...

........................................................................
.............................. CYCLE    8 ..............................
........................................................................

 iter      E             dE          RMSdq      gap      omega  full diag
   1    -32.0764842 -0.320765E+02  0.513E-02    3.64       0.0  T
   2    -32.0764844 -0.213366E-06  0.299E-02    3.64       1.0  T
   3    -32.0764843  0.104678E-06  0.424E-03    3.64       4.6  T
   4    -32.0764845 -0.165283E-06  0.914E-04    3.64      21.5  T
   5    -32.0764845 -0.566237E-08  0.528E-04    3.64      37.1  T
   6    -32.0764845 -0.251622E-08  0.148E-04    3.64     132.7  T
   7    -32.0764845 -0.137902E-09  0.524E-05    3.64     374.2  T
   8    -32.0764845 -0.968470E-11  0.233E-05    3.64     842.6  T
   9    -32.0764845 -0.581935E-11  0.842E-06    3.64    2330.4  T
  10    -32.0764845 -0.532907E-12  0.313E-06    3.64    6273.7  T
     SCC iter.                  ...        0 min,  0.075 sec
     gradient                   ...        0 min,  0.002 sec
 * total energy  :   -31.5553351 Eh     change       -0.6267427E-04 Eh
   gradient norm :     0.0023139 Eh/α   predicted    -0.4460735E-04 ( -28.83%)
   displ. norm   :     0.1322408 α      lambda       -0.5646861E-04
   maximum displ.:     0.0739620 α      in ANC's #1, #5, #9, ...

........................................................................
.............................. CYCLE    9 ..............................
........................................................................

 iter      E             dE          RMSdq      gap      omega  full diag
   1    -32.0767510 -0.320768E+02  0.434E-02    3.64       0.0  T
   2    -32.0767512 -0.152590E-06  0.253E-02    3.64       1.0  T
   3    -32.0767511  0.572997E-07  0.295E-03    3.64       6.6  T
   4    -32.0767512 -0.923943E-07  0.932E-04    3.64      21.0  T
   5    -32.0767512 -0.100835E-07  0.403E-04    3.64      48.6  T
   6    -32.0767512 -0.163759E-08  0.184E-04    3.64     106.7  T
   7    -32.0767512 -0.956462E-10  0.533E-05    3.64     368.2  T
   8    -32.0767512 -0.221760E-10  0.236E-05    3.64     829.9  T
   9    -32.0767512 -0.623857E-11  0.864E-06    3.64    2269.2  T
  10    -32.0767512 -0.596856E-12  0.284E-06    3.64    6902.9  T
     SCC iter.                  ...        0 min,  0.075 sec
     gradient                   ...        0 min,  0.002 sec
 * total energy  :   -31.5553745 Eh     change       -0.3936785E-04 Eh
   gradient norm :     0.0020504 Eh/α   predicted    -0.2872913E-04 ( -27.02%)
   displ. norm   :     0.0931066 α      lambda       -0.3098722E-04
   maximum displ.:     0.0508017 α      in ANC's #1, #9, #5, ...

........................................................................
.............................. CYCLE   10 ..............................
........................................................................

 iter      E             dE          RMSdq      gap      omega  full diag
   1    -32.0765626 -0.320766E+02  0.310E-02    3.64       0.0  T
   2    -32.0765627 -0.106331E-06  0.181E-02    3.64       1.1  T
   3    -32.0765627  0.173950E-07  0.170E-03    3.64      11.5  T
   4    -32.0765627 -0.233337E-07  0.915E-04    3.64      21.4  T
   5    -32.0765628 -0.177688E-07  0.269E-04    3.64      73.0  T
   6    -32.0765628 -0.938911E-10  0.138E-04    3.64     141.7  T
   7    -32.0765628 -0.714806E-10  0.364E-05    3.64     538.2  T
   8    -32.0765628 -0.985523E-11  0.160E-05    3.64    1226.0  T
   9    -32.0765628 -0.380851E-11  0.493E-06    3.64    3980.3  T
  10    -32.0765628 -0.270006E-12  0.227E-06    3.64    8647.2  T
     SCC iter.                  ...        0 min,  0.077 sec
     gradient                   ...        0 min,  0.002 sec
 * total energy  :   -31.5553967 Eh     change       -0.2219155E-04 Eh
   gradient norm :     0.0013476 Eh/α   predicted    -0.1563237E-04 ( -29.56%)
   displ. norm   :     0.1180195 α      lambda       -0.2283199E-04
   maximum displ.:     0.0648539 α      in ANC's #9, #2, #1, ...

........................................................................
.............................. CYCLE   11 ..............................
........................................................................

 iter      E             dE          RMSdq      gap      omega  full diag
   1    -32.0764969 -0.320765E+02  0.399E-02    3.64       0.0  T
   2    -32.0764971 -0.220110E-06  0.234E-02    3.64       1.0  T
   3    -32.0764971  0.319091E-07  0.273E-03    3.64       7.2  T
   4    -32.0764971 -0.625410E-07  0.986E-04    3.64      19.9  T
   5    -32.0764971 -0.763222E-08  0.441E-04    3.64      44.4  T
   6    -32.0764971 -0.192793E-08  0.240E-04    3.64      81.9  T
   7    -32.0764971 -0.258559E-09  0.348E-05    3.64     563.4  T
   8    -32.0764971 -0.819256E-11  0.142E-05    3.64    1379.6  T
   9    -32.0764971 -0.279243E-11  0.611E-06    3.64    3211.0  T
  10    -32.0764971 -0.341061E-12  0.268E-06    3.64    7315.0  T
     SCC iter.                  ...        0 min,  0.075 sec
     gradient                   ...        0 min,  0.002 sec
 * total energy  :   -31.5554167 Eh     change       -0.2002669E-04 Eh
   gradient norm :     0.0014915 Eh/α   predicted    -0.1149046E-04 ( -42.62%)
   displ. norm   :     0.0749832 α      lambda       -0.1478512E-04
   maximum displ.:     0.0449742 α      in ANC's #2, #1, #9, ...

........................................................................
.............................. CYCLE   12 ..............................
........................................................................

 iter      E             dE          RMSdq      gap      omega  full diag
   1    -32.0758662 -0.320759E+02  0.267E-02    3.64       0.0  T
   2    -32.0758662 -0.575327E-07  0.155E-02    3.64       1.3  T
   3    -32.0758662 -0.258196E-08  0.166E-03    3.64      11.8  T
   4    -32.0758662 -0.117201E-07  0.417E-04    3.64      47.0  T
   5    -32.0758662 -0.720846E-10  0.197E-04    3.64      99.8  T
   6    -32.0758662 -0.164434E-09  0.956E-05    3.64     205.2  T
   7    -32.0758662 -0.985381E-10  0.235E-05    3.64     832.9  T
   8    -32.0758662 -0.613909E-11  0.770E-06    3.64    2546.2  T
   9    -32.0758662 -0.291323E-12  0.391E-06    3.64    5020.9  T
     SCC iter.                  ...        0 min,  0.075 sec
     gradient                   ...        0 min,  0.002 sec
 * total energy  :   -31.5554323 Eh     change       -0.1560060E-04 Eh
   gradient norm :     0.0014979 Eh/α   predicted    -0.7411259E-05 ( -52.49%)
   displ. norm   :     0.1536533 α      lambda       -0.2805538E-04
   maximum displ.:     0.1156543 α      in ANC's #2, #10, #9, ...

........................................................................
.............................. CYCLE   13 ..............................
........................................................................

 iter      E             dE          RMSdq      gap      omega  full diag
   1    -32.0764447 -0.320764E+02  0.481E-02    3.64       0.0  T
   2    -32.0764449 -0.245283E-06  0.284E-02    3.64       1.0  T
   3    -32.0764449  0.281178E-07  0.323E-03    3.64       6.1  T
   4    -32.0764450 -0.723860E-07  0.105E-03    3.64      18.7  T
   5    -32.0764450 -0.251413E-08  0.608E-04    3.64      32.3  T
   6    -32.0764450 -0.553634E-08  0.237E-04    3.64      82.9  T
   7    -32.0764450 -0.241698E-09  0.655E-05    3.64     299.4  T
   8    -32.0764450 -0.532907E-11  0.229E-05    3.64     857.2  T
   9    -32.0764450 -0.276401E-11  0.122E-05    3.64    1612.6  T
  10    -32.0764450 -0.483169E-12  0.366E-06    3.64    5354.0  T
  11    -32.0764450 -0.639488E-13  0.149E-06    3.64   13137.1  T
     SCC iter.                  ...        0 min,  0.075 sec
     gradient                   ...        0 min,  0.002 sec
 * total energy  :   -31.5554553 Eh     change       -0.2300774E-04 Eh
   gradient norm :     0.0015853 Eh/α   predicted    -0.1418767E-04 ( -38.34%)
   displ. norm   :     0.0721255 α      lambda       -0.9673727E-05
   maximum displ.:     0.0488182 α      in ANC's #2, #5, #1, ...

........................................................................
.............................. CYCLE   14 ..............................
........................................................................

 iter      E             dE          RMSdq      gap      omega  full diag
   1    -32.0761699 -0.320762E+02  0.281E-02    3.64       0.0  T
   2    -32.0761700 -0.104153E-06  0.164E-02    3.64       1.2  T
   3    -32.0761700  0.133850E-07  0.199E-03    3.64       9.8  T
   4    -32.0761700 -0.297552E-07  0.576E-04    3.64      34.0  T
   5    -32.0761700 -0.156077E-08  0.263E-04    3.64      74.5  T
   6    -32.0761700 -0.675428E-09  0.117E-04    3.64     167.2  T
   7    -32.0761700 -0.725038E-10  0.466E-05    3.64     421.1  T
   8    -32.0761700 -0.106866E-10  0.126E-05    3.64    1561.7  T
   9    -32.0761700 -0.184031E-11  0.514E-06    3.64    3818.5  T
  10    -32.0761700 -0.852651E-13  0.182E-06    3.64   10755.4  T
     SCC iter.                  ...        0 min,  0.076 sec
     gradient                   ...        0 min,  0.003 sec
 * total energy  :   -31.5554651 Eh     change       -0.9810914E-05 Eh
   gradient norm :     0.0008909 Eh/α   predicted    -0.4850484E-05 ( -50.56%)
   displ. norm   :     0.0669324 α      lambda       -0.9803607E-05
   maximum displ.:     0.0545125 α      in ANC's #2, #5, #1, ...

........................................................................
.............................. CYCLE   15 ..............................
........................................................................

 iter      E             dE          RMSdq      gap      omega  full diag
   1    -32.0765960 -0.320766E+02  0.264E-02    3.64       0.0  T
   2    -32.0765962 -0.126693E-06  0.153E-02    3.64       1.3  T
   3    -32.0765961  0.210699E-07  0.217E-03    3.64       9.1  T
   4    -32.0765962 -0.396862E-07  0.617E-04    3.64      31.8  T
   5    -32.0765962 -0.321340E-08  0.282E-04    3.64      69.5  T
   6    -32.0765962 -0.892697E-09  0.126E-04    3.64     155.8  T
   7    -32.0765962 -0.411831E-10  0.392E-05    3.64     499.7  T
   8    -32.0765962 -0.128182E-10  0.137E-05    3.64    1435.0  T
   9    -32.0765962 -0.219558E-11  0.656E-06    3.64    2990.5  T
  10    -32.0765962 -0.376588E-12  0.189E-06    3.64   10359.5  T
     SCC iter.                  ...        0 min,  0.075 sec
     gradient                   ...        0 min,  0.002 sec
 * total energy  :   -31.5554742 Eh     change       -0.9062394E-05 Eh
   gradient norm :     0.0012557 Eh/α   predicted    -0.4913961E-05 ( -45.78%)
   displ. norm   :     0.0486880 α      lambda       -0.6015488E-05
   maximum displ.:     0.0400113 α      in ANC's #2, #6, #3, ...

........................................................................
.............................. CYCLE   16 ..............................
........................................................................

 iter      E             dE          RMSdq      gap      omega  full diag
   1    -32.0768252 -0.320768E+02  0.177E-02    3.64       0.0  T
   2    -32.0768252 -0.318983E-07  0.104E-02    3.64       1.9  T
   3    -32.0768252  0.152374E-07  0.157E-03    3.64      12.5  T
   4    -32.0768252 -0.231476E-07  0.342E-04    3.64      57.3  T
   5    -32.0768252 -0.192536E-09  0.209E-04    3.64      93.9  T
   6    -32.0768252 -0.745352E-09  0.801E-05    3.64     244.8  T
   7    -32.0768252 -0.878941E-11  0.185E-05    3.64    1061.5  T
   8    -32.0768252 -0.242295E-11  0.681E-06    3.64    2881.2  T
   9    -32.0768252 -0.774492E-12  0.259E-06    3.64    7563.2  T
     SCC iter.                  ...        0 min,  0.075 sec
     gradient                   ...        0 min,  0.002 sec
 * total energy  :   -31.5554817 Eh     change       -0.7507794E-05 Eh
   gradient norm :     0.0009803 Eh/α   predicted    -0.3015830E-05 ( -59.83%)
   displ. norm   :     0.0629592 α      lambda       -0.7480237E-05
   maximum displ.:     0.0513147 α      in ANC's #2, #3, #6, ...

........................................................................
.............................. CYCLE   17 ..............................
........................................................................

 iter      E             dE          RMSdq      gap      omega  full diag
   1    -32.0767758 -0.320768E+02  0.208E-02    3.64       0.0  T
   2    -32.0767759 -0.524899E-07  0.122E-02    3.64       1.6  T
   3    -32.0767759  0.137515E-07  0.151E-03    3.64      13.0  T
   4    -32.0767759 -0.225674E-07  0.453E-04    3.64      43.2  T
   5    -32.0767759 -0.193708E-08  0.223E-04    3.64      88.0  T
   6    -32.0767759 -0.731134E-09  0.896E-05    3.64     218.9  T
   7    -32.0767759 -0.436273E-11  0.267E-05    3.64     734.1  T
   8    -32.0767759 -0.697753E-11  0.967E-06    3.64    2028.3  T
   9    -32.0767759 -0.966338E-12  0.418E-06    3.64    4693.1  T
     SCC iter.                  ...        0 min,  0.075 sec
     gradient                   ...        0 min,  0.002 sec
 * total energy  :   -31.5554911 Eh     change       -0.9366951E-05 Eh
   gradient norm :     0.0006420 Eh/α   predicted    -0.3748229E-05 ( -59.98%)
   displ. norm   :     0.0810748 α      lambda       -0.7941342E-05
   maximum displ.:     0.0670878 α      in ANC's #2, #3, #6, ...

........................................................................
.............................. CYCLE   18 ..............................
........................................................................

 iter      E             dE          RMSdq      gap      omega  full diag
   1    -32.0766734 -0.320767E+02  0.272E-02    3.64       0.0  T
   2    -32.0766735 -0.611265E-07  0.161E-02    3.64       1.2  T
   3    -32.0766734  0.249814E-07  0.172E-03    3.64      11.4  T
   4    -32.0766735 -0.398769E-07  0.469E-04    3.64      41.8  T
   5    -32.0766735 -0.197355E-08  0.237E-04    3.64      82.6  T
   6    -32.0766735 -0.716184E-09  0.962E-05    3.64     203.8  T
   7    -32.0766735 -0.288480E-11  0.313E-05    3.64     626.9  T
   8    -32.0766735 -0.120863E-10  0.109E-05    3.64    1804.4  T
   9    -32.0766735 -0.916600E-12  0.458E-06    3.64    4279.5  T
  10    -32.0766735 -0.113687E-12  0.161E-06    3.64   12163.3  T
     SCC iter.                  ...        0 min,  0.075 sec
     gradient                   ...        0 min,  0.002 sec
 * total energy  :   -31.5555011 Eh     change       -0.1002668E-04 Eh
   gradient norm :     0.0008111 Eh/α   predicted    -0.3984320E-05 ( -60.26%)
   displ. norm   :     0.1041402 α      lambda       -0.9023417E-05
   maximum displ.:     0.0865765 α      in ANC's #2, #3, #6, ...

........................................................................
.............................. CYCLE   19 ..............................
........................................................................

 iter      E             dE          RMSdq      gap      omega  full diag
   1    -32.0764419 -0.320764E+02  0.360E-02    3.64       0.0  T
   2    -32.0764420 -0.842970E-07  0.212E-02    3.64       1.0  T
   3    -32.0764420  0.118026E-07  0.163E-03    3.64      12.1  T
   4    -32.0764420 -0.300995E-07  0.660E-04    3.64      29.7  T
   5    -32.0764420 -0.571416E-08  0.239E-04    3.64      82.1  T
   6    -32.0764420 -0.553001E-09  0.113E-04    3.64     173.8  T
   7    -32.0764420 -0.164277E-10  0.340E-05    3.64     576.5  T
   8    -32.0764420 -0.136637E-10  0.126E-05    3.64    1561.7  T
   9    -32.0764420 -0.125056E-11  0.501E-06    3.64    3914.9  T
  10    -32.0764420 -0.177636E-12  0.148E-06    3.64   13244.8  T
     SCC iter.                  ...        0 min,  0.076 sec
     gradient                   ...        0 min,  0.002 sec
 * total energy  :   -31.5555129 Eh     change       -0.1180617E-04 Eh
   gradient norm :     0.0009463 Eh/α   predicted    -0.4535917E-05 ( -61.58%)
   displ. norm   :     0.1403979 α      lambda       -0.1204853E-04
   maximum displ.:     0.1150116 α      in ANC's #2, #3, #1, ...

........................................................................
.............................. CYCLE   20 ..............................
........................................................................

 iter      E             dE          RMSdq      gap      omega  full diag
   1    -32.0761506 -0.320762E+02  0.500E-02    3.64       0.0  T
   2    -32.0761508 -0.152039E-06  0.294E-02    3.64       1.0  T
   3    -32.0761507  0.348241E-07  0.235E-03    3.64       8.3  T
   4    -32.0761508 -0.722442E-07  0.882E-04    3.64      22.2  T
   5    -32.0761508 -0.107575E-07  0.315E-04    3.64      62.3  T
   6    -32.0761508 -0.947963E-09  0.157E-04    3.64     125.0  T
   7    -32.0761508 -0.473008E-10  0.391E-05    3.64     502.1  T
   8    -32.0761508 -0.254445E-10  0.140E-05    3.64    1397.6  T
   9    -32.0761508 -0.202505E-11  0.568E-06    3.64    3452.5  T
  10    -32.0761508 -0.994760E-13  0.185E-06    3.64   10584.7  T
     SCC iter.                  ...        0 min,  0.076 sec
     gradient                   ...        0 min,  0.002 sec
 * total energy  :   -31.5555290 Eh     change       -0.1609414E-04 Eh
   gradient norm :     0.0011150 Eh/α   predicted    -0.6081122E-05 ( -62.22%)
   displ. norm   :     0.2541989 α      lambda       -0.2152758E-04
   maximum displ.:     0.2051165 α      in ANC's #2, #3, #1, ...
 * RMSD in coord.:     0.4402998 α      energy gain  -0.5119865E-02 Eh

generating ANC from model Hessian ...
Using Lindh-Hessian (1995)
 Shifting diagonal of input Hessian by   9.188123928100903E-003
 Lowest  eigenvalues of input Hessian
    0.000000    0.000000    0.000000    0.000000    0.000000    0.000000
    0.010000    0.010245    0.010758    0.011293    0.012088    0.012648
    0.015122    0.017037    0.018429    0.019433    0.024303    0.024561
 Highest eigenvalues
    1.362707    1.551113    1.574307    1.878686    1.984646    2.003465
 

........................................................................
.............................. CYCLE   21 ..............................
........................................................................

 iter      E             dE          RMSdq      gap      omega  full diag
   1    -32.0755627 -0.320756E+02  0.921E-02    3.64       0.0  T
   2    -32.0755631 -0.442727E-06  0.541E-02    3.64       1.0  T
   3    -32.0755630  0.105386E-06  0.414E-03    3.64       4.7  T
   4    -32.0755632 -0.228103E-06  0.150E-03    3.64      13.1  T
   5    -32.0755633 -0.286328E-07  0.542E-04    3.64      36.2  T
   6    -32.0755633 -0.286591E-08  0.264E-04    3.64      74.3  T
   7    -32.0755633 -0.136218E-09  0.660E-05    3.64     297.4  T
   8    -32.0755633 -0.800071E-10  0.231E-05    3.64     848.2  T
   9    -32.0755633 -0.432010E-11  0.932E-06    3.64    2104.3  T
  10    -32.0755633 -0.341061E-12  0.309E-06    3.64    6355.4  T
     SCC iter.                  ...        0 min,  0.075 sec
     gradient                   ...        0 min,  0.002 sec
 * total energy  :   -31.5555561 Eh     change       -0.2715969E-04 Eh
   gradient norm :     0.0014244 Eh/α   predicted     0.0000000E+00 (-100.00%)
   displ. norm   :     0.0288192 α      lambda       -0.9639963E-05
   maximum displ.:     0.0178921 α      in ANC's #1, #3, #4, ...

........................................................................
.............................. CYCLE   22 ..............................
........................................................................

 iter      E             dE          RMSdq      gap      omega  full diag
   1    -32.0769924 -0.320770E+02  0.124E-02    3.64       0.0  T
   2    -32.0769924 -0.502641E-07  0.715E-03    3.64       2.7  T
   3    -32.0769924  0.930965E-08  0.120E-03    3.64      16.4  T
   4    -32.0769924 -0.150674E-07  0.434E-04    3.64      45.2  T
   5    -32.0769924 -0.207572E-08  0.149E-04    3.64     131.6  T
   6    -32.0769924 -0.549960E-10  0.722E-05    3.64     271.6  T
   7    -32.0769924 -0.386677E-10  0.247E-05    3.64     795.0  T
   8    -32.0769924 -0.554934E-11  0.846E-06    3.64    2319.1  T
   9    -32.0769924 -0.433431E-12  0.326E-06    3.64    6013.2  T
     SCC iter.                  ...        0 min,  0.076 sec
     gradient                   ...        0 min,  0.011 sec
 * total energy  :   -31.5555649 Eh     change       -0.8727035E-05 Eh
   gradient norm :     0.0004510 Eh/α   predicted    -0.4848423E-05 ( -44.44%)
   displ. norm   :     0.0371460 α      lambda       -0.4669817E-05
   maximum displ.:     0.0247592 α      in ANC's #1, #3, #4, ...

........................................................................
.............................. CYCLE   23 ..............................
........................................................................

 iter      E             dE          RMSdq      gap      omega  full diag
   1    -32.0772081 -0.320772E+02  0.133E-02    3.64       0.0  T
   2    -32.0772082 -0.294425E-07  0.771E-03    3.64       2.5  T
   3    -32.0772082 -0.945235E-09  0.856E-04    3.64      22.9  T
   4    -32.0772082 -0.327670E-08  0.320E-04    3.64      61.3  T
   5    -32.0772082 -0.644711E-09  0.924E-05    3.64     212.2  T
   6    -32.0772082 -0.741025E-10  0.486E-05    3.64     403.8  T
   7    -32.0772082 -0.782308E-11  0.140E-05    3.64    1400.5  T
   8    -32.0772082 -0.108002E-11  0.528E-06    3.64    3712.7  T
   9    -32.0772082 -0.419220E-12  0.165E-06    3.64   11904.3  T
     SCC iter.                  ...        0 min,  0.075 sec
     gradient                   ...        0 min,  0.002 sec
 * total energy  :   -31.5555704 Eh     change       -0.5543894E-05 Eh
   gradient norm :     0.0005505 Eh/α   predicted    -0.2354966E-05 ( -57.52%)
   displ. norm   :     0.0580559 α      lambda       -0.5570309E-05
   maximum displ.:     0.0400560 α      in ANC's #1, #3, #4, ...

........................................................................
.............................. CYCLE   24 ..............................
........................................................................

 iter      E             dE          RMSdq      gap      omega  full diag
   1    -32.0768735 -0.320769E+02  0.202E-02    3.65       0.0  T
   2    -32.0768735 -0.248343E-07  0.118E-02    3.65       1.7  T
   3    -32.0768735  0.204167E-08  0.848E-04    3.65      23.1  T
   4    -32.0768735 -0.688497E-08  0.439E-04    3.65      44.7  T
   5    -32.0768735 -0.269794E-08  0.123E-04    3.65     159.7  T
   6    -32.0768735 -0.308091E-10  0.674E-05    3.65     290.9  T
   7    -32.0768735 -0.450555E-10  0.121E-05    3.65    1620.1  T
   8    -32.0768735 -0.461853E-12  0.537E-06    3.65    3654.3  T
   9    -32.0768735 -0.348166E-12  0.185E-06    3.65   10620.8  T
     SCC iter.                  ...        0 min,  0.075 sec
     gradient                   ...        0 min,  0.002 sec
 * total energy  :   -31.5555764 Eh     change       -0.6007562E-05 Eh
   gradient norm :     0.0004892 Eh/α   predicted    -0.2794664E-05 ( -53.48%)
   displ. norm   :     0.0580559 α      lambda        0.0000000E+00
   maximum displ.:     0.0400560 α      in ANC's #1, #3, #4, ...

........................................................................
.............................. CYCLE   25 ..............................
........................................................................

 iter      E             dE          RMSdq      gap      omega  full diag
   1    -32.0764844 -0.320765E+02  0.202E-02    3.65       0.0  T
   2    -32.0764845 -0.255653E-07  0.118E-02    3.65       1.7  T
   3    -32.0764845  0.213349E-08  0.866E-04    3.65      22.7  T
   4    -32.0764845 -0.708165E-08  0.443E-04    3.65      44.2  T
   5    -32.0764845 -0.271782E-08  0.126E-04    3.65     156.1  T
   6    -32.0764845 -0.331255E-10  0.691E-05    3.65     283.9  T
   7    -32.0764845 -0.477129E-10  0.127E-05    3.65    1545.0  T
   8    -32.0764845 -0.461853E-12  0.545E-06    3.65    3596.9  T
   9    -32.0764845 -0.319744E-12  0.195E-06    3.65   10077.7  T
     SCC iter.                  ...        0 min,  0.074 sec
     gradient                   ...        0 min,  0.002 sec
 * total energy  :   -31.5555776 Eh     change       -0.1133193E-05 Eh
   gradient norm :     0.0008646 Eh/α   predicted     0.9474039E-09 (-100.08%)
   displ. norm   :     0.0164466 α      lambda       -0.3167483E-05
   maximum displ.:     0.0119658 α      in ANC's #1, #6, #5, ...

........................................................................
.............................. CYCLE   26 ..............................
........................................................................

 iter      E             dE          RMSdq      gap      omega  full diag
   1    -32.0766515 -0.320767E+02  0.896E-03    3.65       0.0  T
   2    -32.0766516 -0.458169E-07  0.473E-03    3.64       4.1  T
   3    -32.0766516 -0.359721E-08  0.108E-03    3.64      18.2  T
   4    -32.0766516 -0.116204E-08  0.471E-04    3.64      41.6  T
   5    -32.0766516 -0.809614E-09  0.582E-05    3.64     337.0  T
   6    -32.0766516 -0.241158E-10  0.307E-05    3.64     639.4  T
   7    -32.0766516 -0.123705E-10  0.138E-05    3.64    1418.9  T
   8    -32.0766516 -0.738964E-12  0.403E-06    3.64    4869.7  T
   9    -32.0766516 -0.149214E-12  0.179E-06    3.64   10943.5  T
     SCC iter.                  ...        0 min,  0.075 sec
     gradient                   ...        0 min,  0.002 sec
 * total energy  :   -31.5555807 Eh     change       -0.3195908E-05 Eh
   gradient norm :     0.0004896 Eh/α   predicted    -0.1585578E-05 ( -50.39%)
   displ. norm   :     0.0284211 α      lambda       -0.3409548E-05
   maximum displ.:     0.0166655 α      in ANC's #1, #6, #5, ...

........................................................................
.............................. CYCLE   27 ..............................
........................................................................

 iter      E             dE          RMSdq      gap      omega  full diag
   1    -32.0769296 -0.320769E+02  0.989E-03    3.65       0.0  T
   2    -32.0769296 -0.247798E-07  0.585E-03    3.65       3.4  T
   3    -32.0769296  0.369950E-08  0.916E-04    3.65      21.4  T
   4    -32.0769296 -0.737861E-08  0.323E-04    3.65      60.8  T
   5    -32.0769296 -0.577813E-09  0.111E-04    3.65     176.2  T
   6    -32.0769296 -0.170886E-09  0.635E-05    3.65     309.0  T
   7    -32.0769296 -0.123990E-10  0.152E-05    3.65    1288.5  T
   8    -32.0769296 -0.409273E-11  0.480E-06    3.65    4085.1  T
   9    -32.0769296 -0.170530E-12  0.156E-06    3.65   12605.7  T
     SCC iter.                  ...        0 min,  0.074 sec
     gradient                   ...        0 min,  0.002 sec
 * total energy  :   -31.5555841 Eh     change       -0.3382613E-05 Eh
   gradient norm :     0.0004516 Eh/α   predicted    -0.1708619E-05 ( -49.49%)
   displ. norm   :     0.0270925 α      lambda        0.5275826E-06
   maximum displ.:     0.0157600 α      in ANC's #1, #6, #5, ...

........................................................................
.............................. CYCLE   28 ..............................
........................................................................

 iter      E             dE          RMSdq      gap      omega  full diag
   1    -32.0771874 -0.320772E+02  0.947E-03    3.65       0.0  T
   2    -32.0771875 -0.232251E-07  0.560E-03    3.65       3.5  T
   3    -32.0771874  0.338625E-08  0.886E-04    3.65      22.1  T
   4    -32.0771875 -0.680110E-08  0.312E-04    3.65      62.8  T
   5    -32.0771875 -0.534122E-09  0.107E-04    3.65     183.1  T
   6    -32.0771875 -0.157101E-09  0.613E-05    3.65     320.1  T
   7    -32.0771875 -0.116316E-10  0.146E-05    3.65    1346.9  T
   8    -32.0771875 -0.374456E-11  0.468E-06    3.65    4193.1  T
   9    -32.0771875 -0.198952E-12  0.150E-06    3.65   13113.9  T
     SCC iter.                  ...        0 min,  0.074 sec
     gradient                   ...        0 min,  0.002 sec
 * total energy  :   -31.5555840 Eh     change        0.1067773E-06 Eh
   gradient norm :     0.0011768 Eh/α   predicted     0.2618242E-06 ( 145.21%)
   displ. norm   :     0.0148599 α      lambda       -0.3104660E-05
   maximum displ.:     0.0118954 α      in ANC's #1, #2, #23, ...

........................................................................
.............................. CYCLE   29 ..............................
........................................................................

 iter      E             dE          RMSdq      gap      omega  full diag
   1    -32.0769618 -0.320770E+02  0.808E-03    3.64       0.0  T
   2    -32.0769618 -0.156203E-07  0.470E-03    3.64       4.2  T
   3    -32.0769618  0.162738E-08  0.851E-04    3.64      23.1  T
   4    -32.0769618 -0.427406E-08  0.290E-04    3.64      67.7  T
   5    -32.0769618 -0.151879E-09  0.124E-04    3.64     157.6  T
   6    -32.0769618 -0.192649E-09  0.520E-05    3.64     376.9  T
   7    -32.0769618 -0.193268E-11  0.144E-05    3.64    1366.5  T
   8    -32.0769618 -0.209610E-11  0.495E-06    3.64    3961.2  T
   9    -32.0769618 -0.127898E-12  0.136E-06    3.64   14443.7  T
     SCC iter.                  ...        0 min,  0.074 sec
     gradient                   ...        0 min,  0.002 sec
 * total energy  :   -31.5555874 Eh     change       -0.3413321E-05 Eh
   gradient norm :     0.0006721 Eh/α   predicted    -0.1555859E-05 ( -54.42%)
   displ. norm   :     0.0273439 α      lambda       -0.2960181E-05
   maximum displ.:     0.0222432 α      in ANC's #1, #2, #4, ...

........................................................................
.............................. CYCLE   30 ..............................
........................................................................

 iter      E             dE          RMSdq      gap      omega  full diag
   1    -32.0766485 -0.320766E+02  0.111E-02    3.64       0.0  T
   2    -32.0766485 -0.180380E-07  0.649E-03    3.64       3.0  T
   3    -32.0766485  0.424891E-08  0.870E-04    3.64      22.5  T
   4    -32.0766485 -0.701700E-08  0.293E-04    3.64      67.0  T
   5    -32.0766485 -0.781853E-09  0.114E-04    3.64     172.6  T
   6    -32.0766485 -0.137739E-09  0.494E-05    3.64     396.7  T
   7    -32.0766485 -0.169109E-11  0.154E-05    3.64    1275.9  T
   8    -32.0766485 -0.427036E-11  0.331E-06    3.64    5922.7  T
   9    -32.0766485  0.710543E-14  0.168E-06    3.64   11679.3  T
     SCC iter.                  ...        0 min,  0.074 sec
     gradient                   ...        0 min,  0.002 sec
 * total energy  :   -31.5555908 Eh     change       -0.3355132E-05 Eh
   gradient norm :     0.0002529 Eh/α   predicted    -0.1484577E-05 ( -55.75%)
   displ. norm   :     0.0334432 α      lambda       -0.2224756E-05
   maximum displ.:     0.0269689 α      in ANC's #1, #2, #4, ...

........................................................................
.............................. CYCLE   31 ..............................
........................................................................

 iter      E             dE          RMSdq      gap      omega  full diag
   1    -32.0765655 -0.320766E+02  0.122E-02    3.64       0.0  T
   2    -32.0765655 -0.108525E-07  0.714E-03    3.64       2.7  T
   3    -32.0765655  0.473853E-08  0.761E-04    3.64      25.8  T
   4    -32.0765655 -0.720076E-08  0.251E-04    3.64      78.1  T
   5    -32.0765655 -0.828813E-09  0.947E-05    3.64     207.1  T
   6    -32.0765655 -0.100087E-09  0.433E-05    3.64     453.1  T
   7    -32.0765655 -0.260769E-11  0.115E-05    3.64    1710.3  T
   8    -32.0765655 -0.295586E-11  0.282E-06    3.64    6959.9  T
   9    -32.0765655  0.000000E+00  0.139E-06    3.64   14062.6  T
     SCC iter.                  ...        0 min,  0.073 sec
     gradient                   ...        0 min,  0.002 sec
 * total energy  :   -31.5555938 Eh     change       -0.3029710E-05 Eh
   gradient norm :     0.0004383 Eh/α   predicted    -0.1117409E-05 ( -63.12%)
   displ. norm   :     0.0404148 α      lambda       -0.2590227E-05
   maximum displ.:     0.0316793 α      in ANC's #1, #2, #4, ...

........................................................................
.............................. CYCLE   32 ..............................
........................................................................

 iter      E             dE          RMSdq      gap      omega  full diag
   1    -32.0766057 -0.320766E+02  0.143E-02    3.64       0.0  T
   2    -32.0766057 -0.139298E-07  0.840E-03    3.64       2.3  T
   3    -32.0766057  0.578282E-08  0.806E-04    3.64      24.3  T
   4    -32.0766057 -0.843357E-08  0.304E-04    3.64      64.4  T
   5    -32.0766057 -0.149835E-08  0.957E-05    3.64     204.9  T
   6    -32.0766057 -0.100648E-09  0.435E-05    3.64     450.6  T
   7    -32.0766057 -0.238742E-11  0.119E-05    3.64    1647.1  T
   8    -32.0766057 -0.231637E-11  0.420E-06    3.64    4671.1  T
   9    -32.0766057 -0.177636E-12  0.193E-06    3.64   10143.5  T
     SCC iter.                  ...        0 min,  0.074 sec
     gradient                   ...        0 min,  0.002 sec
 * total energy  :   -31.5555975 Eh     change       -0.3718825E-05 Eh
   gradient norm :     0.0004787 Eh/α   predicted    -0.1296793E-05 ( -65.13%)
   displ. norm   :     0.0537656 α      lambda       -0.3411185E-05
   maximum displ.:     0.0414101 α      in ANC's #1, #2, #4, ...

........................................................................
.............................. CYCLE   33 ..............................
........................................................................

 iter      E             dE          RMSdq      gap      omega  full diag
   1    -32.0767175 -0.320767E+02  0.187E-02    3.64       0.0  T
   2    -32.0767175 -0.242763E-07  0.110E-02    3.64       1.8  T
   3    -32.0767175  0.107574E-07  0.106E-03    3.64      18.5  T
   4    -32.0767175 -0.159770E-07  0.382E-04    3.64      51.3  T
   5    -32.0767175 -0.217881E-08  0.137E-04    3.64     143.6  T
   6    -32.0767175 -0.197353E-09  0.587E-05    3.64     334.1  T
   7    -32.0767175 -0.199663E-11  0.167E-05    3.64    1174.0  T
   8    -32.0767175 -0.425615E-11  0.599E-06    3.64    3272.7  T
   9    -32.0767175 -0.405009E-12  0.280E-06    3.64    7011.7  T
     SCC iter.                  ...        0 min,  0.073 sec
     gradient                   ...        0 min,  0.002 sec
 * total energy  :   -31.5556024 Eh     change       -0.4837080E-05 Eh
   gradient norm :     0.0003157 Eh/α   predicted    -0.1708250E-05 ( -64.68%)
   displ. norm   :     0.0675113 α      lambda       -0.3966230E-05
   maximum displ.:     0.0520206 α      in ANC's #1, #2, #4, ...

........................................................................
.............................. CYCLE   34 ..............................
........................................................................

 iter      E             dE          RMSdq      gap      omega  full diag
   1    -32.0767900 -0.320768E+02  0.235E-02    3.64       0.0  T
   2    -32.0767900 -0.374512E-07  0.138E-02    3.64       1.4  T
   3    -32.0767900  0.183402E-07  0.139E-03    3.64      14.1  T
   4    -32.0767900 -0.267784E-07  0.473E-04    3.64      41.5  T
   5    -32.0767900 -0.304330E-08  0.183E-04    3.64     107.4  T
   6    -32.0767900 -0.409138E-09  0.790E-05    3.64     248.3  T
   7    -32.0767900 -0.486722E-11  0.196E-05    3.64     999.3  T
   8    -32.0767900 -0.638778E-11  0.724E-06    3.64    2708.7  T
   9    -32.0767900 -0.390799E-12  0.338E-06    3.64    5803.8  T
     SCC iter.                  ...        0 min,  0.074 sec
     gradient                   ...        0 min,  0.002 sec
 * total energy  :   -31.5556080 Eh     change       -0.5598019E-05 Eh
   gradient norm :     0.0001630 Eh/α   predicted    -0.1991730E-05 ( -64.42%)
   displ. norm   :     0.0724244 α      lambda       -0.3905567E-05
   maximum displ.:     0.0563918 α      in ANC's #1, #2, #4, ...

........................................................................
.............................. CYCLE   35 ..............................
........................................................................

 iter      E             dE          RMSdq      gap      omega  full diag
   1    -32.0768226 -0.320768E+02  0.250E-02    3.64       0.0  T
   2    -32.0768226 -0.445832E-07  0.147E-02    3.64       1.3  T
   3    -32.0768226  0.120786E-07  0.131E-03    3.64      15.0  T
   4    -32.0768226 -0.206343E-07  0.530E-04    3.64      37.0  T
   5    -32.0768226 -0.397073E-08  0.180E-04    3.64     108.8  T
   6    -32.0768226 -0.355449E-09  0.848E-05    3.64     231.3  T
   7    -32.0768226 -0.581935E-11  0.200E-05    3.64     981.7  T
   8    -32.0768226 -0.705569E-11  0.757E-06    3.64    2591.0  T
   9    -32.0768226 -0.483169E-12  0.344E-06    3.64    5699.0  T
     SCC iter.                  ...        0 min,  0.077 sec
     gradient                   ...        0 min,  0.002 sec
 * total energy  :   -31.5556136 Eh     change       -0.5576294E-05 Eh
   gradient norm :     0.0001799 Eh/α   predicted    -0.1960099E-05 ( -64.85%)
   displ. norm   :     0.0634447 α      lambda       -0.3313241E-05
   maximum displ.:     0.0504255 α      in ANC's #1, #2, #4, ...

........................................................................
.............................. CYCLE   36 ..............................
........................................................................

 iter      E             dE          RMSdq      gap      omega  full diag
   1    -32.0768275 -0.320768E+02  0.223E-02    3.64       0.0  T
   2    -32.0768276 -0.301018E-07  0.131E-02    3.64       1.5  T
   3    -32.0768276  0.160463E-07  0.131E-03    3.64      15.0  T
   4    -32.0768276 -0.235854E-07  0.436E-04    3.64      44.9  T
   5    -32.0768276 -0.249175E-08  0.166E-04    3.64     118.2  T
   6    -32.0768276 -0.328306E-09  0.782E-05    3.64     250.7  T
   7    -32.0768276 -0.905231E-11  0.162E-05    3.64    1209.0  T
   8    -32.0768276 -0.495959E-11  0.602E-06    3.64    3259.2  T
   9    -32.0768276 -0.248690E-12  0.257E-06    3.64    7641.2  T
     SCC iter.                  ...        0 min,  0.074 sec
     gradient                   ...        0 min,  0.002 sec
 * total energy  :   -31.5556183 Eh     change       -0.4753670E-05 Eh
   gradient norm :     0.0001982 Eh/α   predicted    -0.1661678E-05 ( -65.04%)
   displ. norm   :     0.0490490 α      lambda       -0.2578165E-05
   maximum displ.:     0.0400764 α      in ANC's #1, #2, #4, ...

........................................................................
.............................. CYCLE   37 ..............................
........................................................................

 iter      E             dE          RMSdq      gap      omega  full diag
   1    -32.0768436 -0.320768E+02  0.172E-02    3.65       0.0  T
   2    -32.0768436 -0.198205E-07  0.101E-02    3.64       1.9  T
   3    -32.0768436  0.303687E-08  0.820E-04    3.64      23.9  T
   4    -32.0768436 -0.696245E-08  0.351E-04    3.64      55.8  T
   5    -32.0768436 -0.169812E-08  0.113E-04    3.64     174.2  T
   6    -32.0768436 -0.126931E-09  0.578E-05    3.64     339.1  T
   7    -32.0768436 -0.558487E-11  0.122E-05    3.64    1607.0  T
   8    -32.0768436 -0.262190E-11  0.494E-06    3.64    3972.2  T
   9    -32.0768436 -0.234479E-12  0.195E-06    3.64   10036.5  T
     SCC iter.                  ...        0 min,  0.074 sec
     gradient                   ...        0 min,  0.002 sec
 * total energy  :   -31.5556220 Eh     change       -0.3727139E-05 Eh
   gradient norm :     0.0001789 Eh/α   predicted    -0.1292560E-05 ( -65.32%)
   displ. norm   :     0.0376585 α      lambda       -0.2032408E-05
   maximum displ.:     0.0320255 α      in ANC's #1, #2, #4, ...

........................................................................
.............................. CYCLE   38 ..............................
........................................................................

 iter      E             dE          RMSdq      gap      omega  full diag
   1    -32.0768607 -0.320769E+02  0.136E-02    3.65       0.0  T
   2    -32.0768607 -0.108508E-07  0.796E-03    3.64       2.5  T
   3    -32.0768607  0.295197E-08  0.679E-04    3.64      28.9  T
   4    -32.0768607 -0.566595E-08  0.255E-04    3.64      76.9  T
   5    -32.0768607 -0.821231E-09  0.894E-05    3.64     219.4  T
   6    -32.0768607 -0.850306E-10  0.441E-05    3.64     444.7  T
   7    -32.0768607 -0.382983E-11  0.972E-06    3.64    2018.0  T
   8    -32.0768607 -0.174083E-11  0.348E-06    3.64    5634.7  T
     SCC iter.                  ...        0 min,  0.073 sec
     gradient                   ...        0 min,  0.002 sec
 * total energy  :   -31.5556250 Eh     change       -0.2954990E-05 Eh
   gradient norm :     0.0001331 Eh/α   predicted    -0.1018072E-05 ( -65.55%)
   displ. norm   :     0.0287963 α      lambda       -0.1608349E-05
   maximum displ.:     0.0255499 α      in ANC's #1, #2, #6, ...

........................................................................
.............................. CYCLE   39 ..............................
........................................................................

 iter      E             dE          RMSdq      gap      omega  full diag
   1    -32.0768622 -0.320769E+02  0.106E-02    3.65       0.0  T
   2    -32.0768622 -0.604005E-08  0.621E-03    3.65       3.2  T
   3    -32.0768622  0.150072E-08  0.502E-04    3.65      39.1  T
   4    -32.0768622 -0.317824E-08  0.180E-04    3.65     109.2  T
   5    -32.0768622 -0.387921E-09  0.664E-05    3.65     295.2  T
   6    -32.0768622 -0.453184E-10  0.331E-05    3.65     592.8  T
   7    -32.0768622 -0.196110E-11  0.728E-06    3.65    2693.2  T
   8    -32.0768622 -0.987654E-12  0.257E-06    3.65    7629.5  T
     SCC iter.                  ...        0 min,  0.074 sec
     gradient                   ...        0 min,  0.002 sec
 * total energy  :   -31.5556273 Eh     change       -0.2349648E-05 Eh
   gradient norm :     0.0001115 Eh/α   predicted    -0.8051913E-06 ( -65.73%)
   displ. norm   :     0.0230787 α      lambda       -0.1325861E-05
   maximum displ.:     0.0212447 α      in ANC's #1, #2, #6, ...

........................................................................
.............................. CYCLE   40 ..............................
........................................................................

 iter      E             dE          RMSdq      gap      omega  full diag
   1    -32.0768576 -0.320769E+02  0.873E-03    3.65       0.0  T
   2    -32.0768576 -0.425397E-08  0.513E-03    3.65       3.8  T
   3    -32.0768576  0.897295E-09  0.419E-04    3.65      46.8  T
   4    -32.0768576 -0.210437E-08  0.138E-04    3.65     141.7  T
   5    -32.0768576 -0.198291E-09  0.555E-05    3.65     353.2  T
   6    -32.0768576 -0.354277E-10  0.264E-05    3.65     742.7  T
   7    -32.0768576 -0.987654E-12  0.559E-06    3.65    3507.3  T
   8    -32.0768576 -0.518696E-12  0.222E-06    3.65    8826.5  T
     SCC iter.                  ...        0 min,  0.074 sec
     gradient                   ...        0 min,  0.002 sec
 * total energy  :   -31.5556293 Eh     change       -0.1936621E-05 Eh
   gradient norm :     0.0000999 Eh/α   predicted    -0.6634996E-06 ( -65.74%)
   displ. norm   :     0.0195283 α      lambda       -0.1116454E-05
   maximum displ.:     0.0184830 α      in ANC's #1, #2, #3, ...

........................................................................
.............................. CYCLE   41 ..............................
........................................................................

 iter      E             dE          RMSdq      gap      omega  full diag
   1    -32.0768523 -0.320769E+02  0.742E-03    3.65       0.0  T
   2    -32.0768523 -0.310336E-08  0.435E-03    3.65       4.5  T
   3    -32.0768523  0.279314E-09  0.315E-04    3.65      62.3  T
   4    -32.0768523 -0.109216E-08  0.119E-04    3.65     165.3  T
   5    -32.0768523 -0.164476E-09  0.420E-05    3.65     466.6  T
   6    -32.0768523 -0.159801E-10  0.206E-05    3.65     951.2  T
   7    -32.0768523 -0.625278E-12  0.391E-06    3.65    5010.3  T
   8    -32.0768523 -0.156319E-12  0.184E-06    3.65   10659.9  T
     SCC iter.                  ...        0 min,  0.073 sec
     gradient                   ...        0 min,  0.002 sec
 * total energy  :   -31.5556309 Eh     change       -0.1641759E-05 Eh
   gradient norm :     0.0000946 Eh/α   predicted    -0.5627785E-06 ( -65.72%)
   displ. norm   :     0.0170358 α      lambda       -0.9612113E-06
   maximum displ.:     0.0164800 α      in ANC's #1, #2, #5, ...

........................................................................
.............................. CYCLE   42 ..............................
........................................................................

 iter      E             dE          RMSdq      gap      omega  full diag
   1    -32.0768483 -0.320768E+02  0.656E-03    3.65       0.0  T
   2    -32.0768483 -0.239937E-08  0.386E-03    3.65       5.1  T
   3    -32.0768483  0.508344E-09  0.332E-04    3.65      59.1  T
   4    -32.0768483 -0.122795E-08  0.905E-05    3.65     216.8  T
   5    -32.0768483 -0.628262E-10  0.421E-05    3.65     466.1  T
   6    -32.0768483 -0.229150E-10  0.189E-05    3.65    1038.9  T
   7    -32.0768483 -0.476064E-12  0.340E-06    3.65    5764.6  T
   8    -32.0768483 -0.994760E-13  0.165E-06    3.65   11890.3  T
     SCC iter.                  ...        0 min,  0.074 sec
     gradient                   ...        0 min,  0.002 sec
 * total energy  :   -31.5556323 Eh     change       -0.1412074E-05 Eh
   gradient norm :     0.0000904 Eh/α   predicted    -0.4832629E-06 ( -65.78%)
   displ. norm   :     0.0152396 α      lambda       -0.8431250E-06
   maximum displ.:     0.0149878 α      in ANC's #1, #5, #9, ...
 * RMSD in coord.:     0.1419290 α      energy gain  -0.1033474E-03 Eh

generating ANC from model Hessian ...
Using Lindh-Hessian (1995)
 Shifting diagonal of input Hessian by   9.157329198490539E-003
 Lowest  eigenvalues of input Hessian
    0.000000    0.000000    0.000000    0.000000    0.000000    0.000000
    0.010000    0.010154    0.010704    0.011296    0.012116    0.012573
    0.015082    0.017078    0.018457    0.019418    0.024315    0.024779
 Highest eigenvalues
    1.364632    1.552501    1.576803    1.881289    1.987689    2.005969
 

........................................................................
.............................. CYCLE   43 ..............................
........................................................................

 iter      E             dE          RMSdq      gap      omega  full diag
   1    -32.0768489 -0.320768E+02  0.580E-03    3.65       0.0  T
   2    -32.0768489 -0.223093E-08  0.340E-03    3.65       5.8  T
   3    -32.0768489  0.895284E-10  0.256E-04    3.65      76.7  T
   4    -32.0768489 -0.595030E-09  0.949E-05    3.65     206.7  T
   5    -32.0768489 -0.954827E-10  0.332E-05    3.65     591.0  T
   6    -32.0768489 -0.131735E-10  0.157E-05    3.65    1253.0  T
   7    -32.0768489 -0.454747E-12  0.310E-06    3.65    6321.3  T
   8    -32.0768489 -0.355271E-13  0.120E-06    3.65   16366.8  T
     SCC iter.                  ...        0 min,  0.073 sec
     gradient                   ...        0 min,  0.002 sec
 * total energy  :   -31.5556336 Eh     change       -0.1241371E-05 Eh
   gradient norm :     0.0000864 Eh/α   predicted     0.0000000E+00 (-100.00%)
   displ. norm   :     0.0124433 α      lambda       -0.1444845E-07
   maximum displ.:     0.0122726 α      in ANC's #1, #2, #3, ...

........................................................................
.............................. CYCLE   44 ..............................
........................................................................

 iter      E             dE          RMSdq      gap      omega  full diag
   1    -32.0768557 -0.320769E+02  0.449E-03    3.65       0.0  T
   2    -32.0768557 -0.156827E-08  0.264E-03    3.65       7.4  T
   3    -32.0768557  0.441695E-09  0.264E-04    3.65      74.2  T
   4    -32.0768557 -0.762235E-09  0.831E-05    3.65     236.0  T
   5    -32.0768557 -0.857412E-10  0.369E-05    3.65     531.3  T
   6    -32.0768557 -0.244924E-10  0.149E-05    3.65    1318.8  T
   7    -32.0768557 -0.142109E-12  0.375E-06    3.65    5223.3  T
   8    -32.0768557 -0.113687E-12  0.141E-06    3.65   13874.3  T
     SCC iter.                  ...        0 min,  0.074 sec
     gradient                   ...        0 min,  0.002 sec
 * total energy  :   -31.5556346 Eh     change       -0.1008103E-05 Eh
   gradient norm :     0.0000891 Eh/α   predicted    -0.3459195E-06 ( -65.69%)
   displ. norm   :     0.0134003 α      lambda       -0.7102827E-06
   maximum displ.:     0.0127786 α      in ANC's #1, #2, #3, ...

........................................................................
.............................. CYCLE   45 ..............................
........................................................................

 iter      E             dE          RMSdq      gap      omega  full diag
   1    -32.0768555 -0.320769E+02  0.489E-03    3.65       0.0  T
   2    -32.0768555 -0.196174E-08  0.288E-03    3.65       6.8  T
   3    -32.0768555  0.620311E-09  0.320E-04    3.65      61.3  T
   4    -32.0768555 -0.106775E-08  0.792E-05    3.65     247.5  T
   5    -32.0768555 -0.375664E-10  0.402E-05    3.65     487.8  T
   6    -32.0768555 -0.312994E-10  0.158E-05    3.65    1238.0  T
   7    -32.0768555 -0.426326E-12  0.438E-06    3.65    4479.7  T
   8    -32.0768555 -0.113687E-12  0.189E-06    3.65   10401.4  T
     SCC iter.                  ...        0 min,  0.073 sec
     gradient                   ...        0 min,  0.002 sec
 * total energy  :   -31.5556356 Eh     change       -0.1046152E-05 Eh
   gradient norm :     0.0000863 Eh/α   predicted    -0.3568418E-06 ( -65.89%)
   displ. norm   :     0.0148119 α      lambda       -0.7503274E-06
   maximum displ.:     0.0136289 α      in ANC's #1, #3, #2, ...

........................................................................
.............................. CYCLE   46 ..............................
........................................................................

 iter      E             dE          RMSdq      gap      omega  full diag
   1    -32.0768487 -0.320768E+02  0.511E-03    3.65       0.0  T
   2    -32.0768487 -0.192917E-08  0.300E-03    3.65       6.5  T
   3    -32.0768487  0.204189E-09  0.257E-04    3.65      76.3  T
   4    -32.0768487 -0.575675E-09  0.996E-05    3.65     197.0  T
   5    -32.0768487 -0.111953E-09  0.359E-05    3.65     546.5  T
   6    -32.0768487 -0.183817E-10  0.160E-05    3.65    1229.2  T
   7    -32.0768487 -0.419220E-12  0.416E-06    3.65    4718.7  T
   8    -32.0768487 -0.106581E-12  0.184E-06    3.65   10657.0  T
     SCC iter.                  ...        0 min,  0.075 sec
     gradient                   ...        0 min,  0.002 sec
 * total energy  :   -31.5556367 Eh     change       -0.1093318E-05 Eh
   gradient norm :     0.0000839 Eh/α   predicted    -0.3774611E-06 ( -65.48%)
   displ. norm   :     0.0164576 α      lambda       -0.7856049E-06
   maximum displ.:     0.0148068 α      in ANC's #1, #3, #7, ...

........................................................................
.............................. CYCLE   47 ..............................
........................................................................

 iter      E             dE          RMSdq      gap      omega  full diag
   1    -32.0768577 -0.320769E+02  0.556E-03    3.65       0.0  T
   2    -32.0768577 -0.354587E-08  0.324E-03    3.65       6.0  T
   3    -32.0768577  0.624361E-09  0.346E-04    3.65      56.7  T
   4    -32.0768577 -0.107062E-08  0.146E-04    3.65     134.8  T
   5    -32.0768577 -0.267285E-09  0.502E-05    3.65     390.4  T
   6    -32.0768577 -0.454463E-10  0.189E-05    3.65    1038.0  T
   7    -32.0768577 -0.405009E-12  0.575E-06    3.65    3408.3  T
   8    -32.0768577 -0.191847E-12  0.271E-06    3.65    7237.5  T
     SCC iter.                  ...        0 min,  0.074 sec
     gradient                   ...        0 min,  0.002 sec
 * total energy  :   -31.5556379 Eh     change       -0.1139891E-05 Eh
   gradient norm :     0.0000839 Eh/α   predicted    -0.3948162E-06 ( -65.36%)
   displ. norm   :     0.0169837 α      lambda       -0.7727393E-06
   maximum displ.:     0.0152142 α      in ANC's #1, #3, #4, ...

........................................................................
.............................. CYCLE   48 ..............................
........................................................................

 iter      E             dE          RMSdq      gap      omega  full diag
   1    -32.0768582 -0.320769E+02  0.572E-03    3.65       0.0  T
   2    -32.0768582 -0.309305E-08  0.336E-03    3.65       5.8  T
   3    -32.0768582  0.857654E-09  0.363E-04    3.65      54.0  T
   4    -32.0768582 -0.132740E-08  0.126E-04    3.65     155.3  T
   5    -32.0768582 -0.223132E-09  0.488E-05    3.65     401.8  T
   6    -32.0768582 -0.438405E-10  0.192E-05    3.65    1023.1  T
   7    -32.0768582 -0.454747E-12  0.605E-06    3.65    3243.3  T
   8    -32.0768582 -0.241585E-12  0.220E-06    3.65    8898.3  T
     SCC iter.                  ...        0 min,  0.074 sec
     gradient                   ...        0 min,  0.002 sec
 * total energy  :   -31.5556390 Eh     change       -0.1119574E-05 Eh
   gradient norm :     0.0000774 Eh/α   predicted    -0.3885117E-06 ( -65.30%)
   displ. norm   :     0.0166904 α      lambda       -0.7236778E-06
   maximum displ.:     0.0150148 α      in ANC's #1, #3, #5, ...

........................................................................
.............................. CYCLE   49 ..............................
........................................................................

 iter      E             dE          RMSdq      gap      omega  full diag
   1    -32.0768595 -0.320769E+02  0.571E-03    3.65       0.0  T
   2    -32.0768595 -0.243722E-08  0.336E-03    3.65       5.8  T
   3    -32.0768595  0.244270E-09  0.324E-04    3.65      60.5  T
   4    -32.0768595 -0.812030E-09  0.983E-05    3.65     199.5  T
   5    -32.0768595 -0.441318E-10  0.444E-05    3.65     441.9  T
   6    -32.0768595 -0.308091E-10  0.198E-05    3.65     992.4  T
   7    -32.0768595 -0.795808E-12  0.379E-06    3.65    5170.4  T
   8    -32.0768595 -0.355271E-13  0.201E-06    3.65    9737.2  T
     SCC iter.                  ...        0 min,  0.074 sec
     gradient                   ...        0 min,  0.002 sec
 * total energy  :   -31.5556400 Eh     change       -0.1056690E-05 Eh
   gradient norm :     0.0000747 Eh/α   predicted    -0.3641081E-06 ( -65.54%)
   displ. norm   :     0.0157479 α      lambda       -0.6624990E-06
   maximum displ.:     0.0143036 α      in ANC's #1, #3, #5, ...

........................................................................
.............................. CYCLE   50 ..............................
........................................................................

 iter      E             dE          RMSdq      gap      omega  full diag
   1    -32.0768642 -0.320769E+02  0.538E-03    3.65       0.0  T
   2    -32.0768642 -0.257076E-08  0.315E-03    3.65       6.2  T
   3    -32.0768642  0.206128E-09  0.290E-04    3.65      67.6  T
   4    -32.0768642 -0.636518E-09  0.104E-04    3.65     188.5  T
   5    -32.0768642 -0.122157E-09  0.412E-05    3.65     476.6  T
[...]
         :: add. restraining           0.000000000000 Eh    ::
         :: total charge               0.000000000000 e     ::
         :::::::::::::::::::::::::::::::::::::::::::::::::::::

           ------------------------------------------------- 
          |                Numerical Hessian                |
           ------------------------------------------------- 
step length          :   0.00500
SCC accuracy         :   0.30000
Hessian scale factor :   1.00000
frozen atoms in %    :   0.00000    0
RMS gradient         :   0.00005
estimated CPU  time      1.13 min
estimated wall time      0.13 min

writing file <hessian>.

 projected vibrational frequencies (cm⁻¹)
eigval :       -0.00    -0.00    -0.00     0.00     0.00     0.00
eigval :       24.19    66.55    88.73   113.62   161.80   172.21
eigval :      200.35   222.09   249.41   265.24   311.91   362.34
eigval :      366.96   391.47   474.30   585.81   648.41   659.48
eigval :      679.40   689.54   737.04   760.39   769.88   872.64
eigval :      895.81   925.78   931.50   967.51   983.08   995.41
eigval :     1013.72  1017.27  1063.82  1077.63  1085.13  1115.17
eigval :     1123.71  1181.85  1204.08  1223.42  1230.42  1251.43
eigval :     1267.97  1280.64  1317.18  1408.00  1412.87  1421.34
eigval :     1449.40  1452.21  1461.32  1496.45  1499.41  1505.31
eigval :     1505.98  1577.83  1589.10  2936.36  2941.65  2950.25
eigval :     2956.69  3011.53  3012.18  3023.89  3025.89  3034.58
eigval :     3041.41  3056.81  3067.70  3074.45  3086.85  3094.20
           -------------------------------------------------
          |                Property Printout                |
           -------------------------------------------------

    * Orbital Energies and Occupations

         #    Occupation            Energy/Eh            Energy/eV
      -------------------------------------------------------------
         1        2.0000           -0.6588105             -17.9271
       ...           ...                  ...                  ...
        18        2.0000           -0.4752346             -12.9318
        19        2.0000           -0.4741803             -12.9031
        20        2.0000           -0.4670907             -12.7102
        21        2.0000           -0.4609835             -12.5440
        22        2.0000           -0.4564798             -12.4214
        23        2.0000           -0.4433578             -12.0644
        24        2.0000           -0.4383578             -11.9283
        25        2.0000           -0.4241238             -11.5410
        26        2.0000           -0.4159803             -11.3194
        27        2.0000           -0.4075127             -11.0890
        28        2.0000           -0.4028173             -10.9612
        29        2.0000           -0.3996864             -10.8760
        30        2.0000           -0.3639563              -9.9038 (HOMO)
        31                         -0.2299332              -6.2568 (LUMO)
        32                         -0.2214880              -6.0270
        33                         -0.1555275              -4.2321
        34                         -0.1499173              -4.0795
        35                         -0.0931535              -2.5348
        36                          0.0042084               0.1145
        37                          0.0487802               1.3274
        38                          0.0970444               2.6407
        39                          0.1137917               3.0964
        40                          0.1210470               3.2939
        41                          0.1303855               3.5480
       ...                                ...                  ...
        64                          0.7751203              21.0921
      -------------------------------------------------------------
                  HL-Gap            0.1340232 Eh            3.6470 eV
             Fermi-level           -0.2969448 Eh           -8.0803 eV

     #   Z          covCN         q      C6AA      α(0)
     1  15 P        3.025    -0.112   165.320    23.098
     2   6 C        3.748    -0.046    21.463     6.608
     3   1 H        0.926     0.040     2.443     2.444
     4   1 H        0.925     0.046     2.367     2.406
     5   6 C        3.819    -0.098    22.345     6.727
     6   1 H        0.925     0.041     2.435     2.440
     7   1 H        0.925     0.039     2.467     2.456
     8   1 H        0.925     0.031     2.569     2.507
     9   6 C        2.915     0.012    27.747     8.638
    10   6 C        3.028    -0.030    28.724     8.791
    11   6 C        2.958    -0.033    28.824     8.806
    12   6 C        2.918    -0.030    28.752     8.793
    13   6 C        2.920    -0.031    28.784     8.798
    14   6 C        2.920    -0.031    28.778     8.797
    15   1 H        0.925     0.034     2.530     2.487
    16   1 H        0.926     0.036     2.505     2.475
    17   1 H        0.926     0.028     2.608     2.526
    18   1 H        0.926     0.027     2.628     2.535
    19   1 H        0.926     0.028     2.618     2.530
    20   6 C        3.748    -0.046    21.465     6.608
    21   1 H        0.926     0.040     2.451     2.448
    22   1 H        0.926     0.042     2.424     2.435
    23   6 C        3.781    -0.096    22.349     6.735
    24   1 H        0.925     0.037     2.485     2.465
    25   1 H        0.925     0.038     2.472     2.459
    26   1 H        0.925     0.033     2.539     2.492

 Mol. C6AA /au·bohr⁶  :       7599.983088
 Mol. C8AA /au·bohr⁸  :     202589.746796
 Mol. α(0) /au        :        139.504294


Wiberg/Mayer (AO) data.
largest (>0.10) Wiberg bond orders for each atom

 ---------------------------------------------------------------------------
     #   Z sym  total        # sym  WBO       # sym  WBO       # sym  WBO
 ---------------------------------------------------------------------------
     1  15 P    3.375 --     2 C    1.029     9 C    1.019    20 C    1.013
     2   6 C    3.994 --     1 P    1.029     5 C    1.016     3 H    0.956
                             4 H    0.950
     3   1 H    0.998 --     2 C    0.956
     4   1 H    0.998 --     2 C    0.950
     5   6 C    3.997 --     2 C    1.016     6 H    0.985     8 H    0.985
                             7 H    0.983
     6   1 H    0.998 --     5 C    0.985
     7   1 H    0.998 --     5 C    0.983
     8   1 H    0.999 --     5 C    0.985
     9   6 C    3.982 --    11 C    1.404    10 C    1.389     1 P    1.019
                            14 C    0.106
    10   6 C    3.992 --    12 C    1.457     9 C    1.389    15 H    0.962
                            13 C    0.110
    11   6 C    3.993 --    13 C    1.439     9 C    1.404    16 H    0.961
                            12 C    0.107
    12   6 C    3.991 --    10 C    1.457    14 C    1.427    17 H    0.970
                            11 C    0.107
    13   6 C    3.993 --    14 C    1.442    11 C    1.439    18 H    0.970
                            10 C    0.110
    14   6 C    3.992 --    13 C    1.442    12 C    1.427    19 H    0.971
                             9 C    0.106
    15   1 H    0.999 --    10 C    0.962
    16   1 H    0.999 --    11 C    0.961
    17   1 H    0.999 --    12 C    0.970
    18   1 H    0.999 --    13 C    0.970
    19   1 H    0.998 --    14 C    0.971
    20   6 C    3.994 --     1 P    1.013    23 C    1.012    21 H    0.957
                            22 H    0.956
    21   1 H    0.998 --    20 C    0.957
    22   1 H    0.998 --    20 C    0.956
    23   6 C    3.997 --    20 C    1.012    24 H    0.985    25 H    0.983
                            26 H    0.983
    24   1 H    0.999 --    23 C    0.985
    25   1 H    0.999 --    23 C    0.983
    26   1 H    0.999 --    23 C    0.983
 ---------------------------------------------------------------------------

Topologies differ in total number of bonds
Writing topology from bond orders to xtbtopo.mol

molecular dipole:
                 x           y           z       tot (Debye)
 q only:        0.068       0.274       0.154
   full:       -0.055       0.484       0.433       1.657
molecular quadrupole (traceless):
                xx          xy          yy          xz          yz          zz
 q only:        1.772       0.990      -0.227       1.220      -2.664      -1.545
  q+dip:        4.607       4.290      -2.187       3.755      -6.132      -2.420
   full:        3.780       3.179       0.200       3.741      -5.826      -3.980

           -------------------------------------------------
          |                Geometry Summary                 |
           -------------------------------------------------

      molecular mass/u    :      166.2002322
   center of mass at/Å    :        0.5531494      -0.3705708      -1.8904762
  moments of inertia/u·Å² :        0.3621934E+03   0.7152043E+03   0.8847322E+03
rotational constants/cm⁻¹ :        0.4654317E-01   0.2357037E-01   0.1905394E-01

 * 24 selected distances

     #   Z          #   Z                                           value/Å
     1  15 P        2   6 C                                       1.8645046 (max)
     2   6 C        3   1 H                                       1.0941800
     2   6 C        4   1 H                                       1.0922203
     2   6 C        5   6 C                                       1.5244989
     5   6 C        6   1 H                                       1.0880270
     5   6 C        7   1 H                                       1.0883179
     5   6 C        8   1 H                                       1.0892381
     9   6 C       10   6 C                                       1.3939513
     9   6 C       11   6 C                                       1.3891820
    10   6 C       12   6 C                                       1.3808555
    11   6 C       13   6 C                                       1.3846475
    12   6 C       14   6 C                                       1.3857293
    13   6 C       14   6 C                                       1.3834870
    10   6 C       15   1 H                                       1.0818487
    11   6 C       16   1 H                                       1.0792471 (min)
    12   6 C       17   1 H                                       1.0806258
    13   6 C       18   1 H                                       1.0809464
    14   6 C       19   1 H                                       1.0801718
    20   6 C       21   1 H                                       1.0940699
    20   6 C       22   1 H                                       1.0934328
    20   6 C       23   6 C                                       1.5224450
    23   6 C       24   1 H                                       1.0870811
    23   6 C       25   1 H                                       1.0885939
    23   6 C       26   1 H                                       1.0890879

 * 3 distinct bonds (by element types)

   Z      Z             #   av. dist./Å        max./Å        min./Å
   1 H    6 C          15     1.0871392     1.0941800     1.0792471
   6 C    6 C           8     1.4205996     1.5244989     1.3808555
   6 C   15 P           1     1.8645046     1.8645046     1.8645046

           -------------------------------------------------
          |               Frequency Printout                |
           -------------------------------------------------
 projected vibrational frequencies (cm⁻¹)
eigval :       -0.00    -0.00    -0.00     0.00     0.00     0.00
eigval :       24.19    66.55    88.73   113.62   161.80   172.21
eigval :      200.35   222.09   249.41   265.24   311.91   362.34
eigval :      366.96   391.47   474.30   585.81   648.41   659.48
eigval :      679.40   689.54   737.04   760.39   769.88   872.64
eigval :      895.81   925.78   931.50   967.51   983.08   995.41
eigval :     1013.72  1017.27  1063.82  1077.63  1085.13  1115.17
eigval :     1123.71  1181.85  1204.08  1223.42  1230.42  1251.43
eigval :     1267.97  1280.64  1317.18  1408.00  1412.87  1421.34
eigval :     1449.40  1452.21  1461.32  1496.45  1499.41  1505.31
eigval :     1505.98  1577.83  1589.10  2936.36  2941.65  2950.25
eigval :     2956.69  3011.53  3012.18  3023.89  3025.89  3034.58
eigval :     3041.41  3056.81  3067.70  3074.45  3086.85  3094.20
 reduced masses (amu)
   1: 11.16   2: 14.83   3: 12.52   4: 10.97   5: 12.53   6: 15.86   7:  9.80   8:  8.94
   9:  8.93  10: 10.03  11:  5.19  12:  8.11  13:  7.17  14:  6.78  15:  6.94  16:  8.65
  17: 12.95  18: 12.57  19: 10.99  20: 18.17  21: 12.99  22: 11.18  23: 13.67  24: 11.50
  25: 14.10  26: 12.67  27:  3.27  28:  6.86  29:  4.75  30:  3.30  31:  3.57  32:  4.14
  33:  2.96  34: 10.46  35:  3.15  36:  3.19  37:  3.63  38:  4.42  39:  9.52  40:  9.07
  41:  8.34  42:  8.48  43:  4.41  44:  1.30  45:  1.91  46:  3.63  47:  3.26  48:  4.20
  49:  4.14  50:  3.45  51: 11.93  52:  2.91  53:  2.93  54:  8.53  55:  3.44  56:  2.87
  57:  5.95  58:  1.53  59:  1.56  60:  1.57  61:  1.53  62: 11.43  63: 11.44  64:  1.93
  65:  1.98  66:  1.51  67:  1.51  68:  1.82  69:  1.86  70:  1.90  71:  1.71  72:  1.43
  73:  1.57  74:  1.79  75:  1.77  76:  1.83  77:  1.89  78:  1.86
 IR intensities (km·mol⁻¹)
   1:  0.23   2:  0.02   3:  0.08   4:  0.02   5:  0.04   6:  0.05   7:  0.08   8:  0.09
   9:  0.15  10:  0.31  11:  0.14  12:  0.20  13:  0.13  14:  0.16  15:  0.12  16:  0.81
  17:  0.18  18:  0.60  19:  0.29  20:  0.57  21:  5.06  22:  0.04  23: 10.85  24:  9.41
  25:  8.70  26:  9.85  27: 18.69  28: 35.43  29: 18.55  30:  0.08  31:  0.09  32:  0.11
  33:  0.00  34:  1.69  35:  5.19  36:  2.00  37:  1.31  38:  3.85  39:  6.35  40:  7.70
  41:  0.16  42:  1.28  43:  0.02  44:  0.01  45:  0.62  46:  2.35  47:  2.17  48:  6.35
  49:  6.53  50:  0.70  51:  0.35  52:  1.73  53:  2.16  54:  0.75  55:  0.38  56:  1.02
  57:  0.07  58:  2.10  59:  0.97  60:  0.99  61:  2.26  62:  0.41  63:  4.82  64:  4.08
  65: 42.58  66: 15.42  67: 21.64  68: 49.04  69: 46.11  70: 23.33  71: 30.52  72: 16.77
  73: 23.86  74: 15.82  75:  7.46  76: 51.29  77: 77.85  78: 22.31
 Raman intensities (Ä⁴*amu⁻¹)
   1:  0.00   2:  0.00   3:  0.00   4:  0.00   5:  0.00   6:  0.00   7:  0.00   8:  0.00
   9:  0.00  10:  0.00  11:  0.00  12:  0.00  13:  0.00  14:  0.00  15:  0.00  16:  0.00
  17:  0.00  18:  0.00  19:  0.00  20:  0.00  21:  0.00  22:  0.00  23:  0.00  24:  0.00
  25:  0.00  26:  0.00  27:  0.00  28:  0.00  29:  0.00  30:  0.00  31:  0.00  32:  0.00
  33:  0.00  34:  0.00  35:  0.00  36:  0.00  37:  0.00  38:  0.00  39:  0.00  40:  0.00
  41:  0.00  42:  0.00  43:  0.00  44:  0.00  45:  0.00  46:  0.00  47:  0.00  48:  0.00
  49:  0.00  50:  0.00  51:  0.00  52:  0.00  53:  0.00  54:  0.00  55:  0.00  56:  0.00
  57:  0.00  58:  0.00  59:  0.00  60:  0.00  61:  0.00  62:  0.00  63:  0.00  64:  0.00
  65:  0.00  66:  0.00  67:  0.00  68:  0.00  69:  0.00  70:  0.00  71:  0.00  72:  0.00
  73:  0.00  74:  0.00  75:  0.00  76:  0.00  77:  0.00  78:  0.00
 output can be read by thermo (or use thermo option).
 writing <g98.out> molden fake output.
 recommended (thermochemical) frequency scaling factor: 1.0
           -------------------------------------------------
          |             Thermodynamic Functions             |
           -------------------------------------------------

Molecule has no symmetry elements
It seems to be the C1 point group
c1  symmetry found (for desy threshold:  0.10E+00) used in thermo

          ...................................................
          :                      SETUP                      :
          :.................................................:
          :  # frequencies                          72      :
          :  # imaginary freq.                       0      :
          :  linear?                             false      :
          :  only rotor calc.                    false      :
          :  symmetry                               c1      :
          :  rotational number                       1      :
          :  scaling factor                  1.0000000      :
          :  rotor cutoff                   50.0000000 cm⁻¹ :
          :  imag. cutoff                  -20.0000000 cm⁻¹ :
          :.................................................:

    mode    ω/cm⁻¹     T·S(HO)/kcal·mol⁻¹    T·S(FR)/kcal·mol⁻¹   T·S(vib)
   ------------------------------------------------------------------------
       1     24.19    -1.86530 (  5.20%)    -1.27128 ( 94.80%)    -1.30216
       2     66.55    -1.26799 ( 75.84%)    -0.97173 ( 24.16%)    -1.19640
       3     88.73    -1.09954 ( 90.84%)    -0.88655 (  9.16%)    -1.08003
       4    113.62    -0.95588 ( 96.39%)    -0.81331 (  3.61%)    -0.95073
       5    161.80    -0.75392 ( 99.10%)    -0.70862 (  0.90%)    -0.75351
       6    172.21    -0.71892 ( 99.29%)    -0.69015 (  0.71%)    -0.71871
       7    200.35    -0.63501 ( 99.61%)    -0.64531 (  0.39%)    -0.63505
       8    222.09    -0.57900 ( 99.74%)    -0.61480 (  0.26%)    -0.57909
       9    249.41    -0.51721 ( 99.84%)    -0.58043 (  0.16%)    -0.51731
      10    265.24    -0.48510 ( 99.87%)    -0.56221 (  0.13%)    -0.48520
   ------------------------------------------------------------------------

   temp. (K)  partition function   enthalpy   heat capacity  entropy
                                   cal/mol     cal/K/mol   cal/K/mol   J/K/mol
 298.15  VIB  0.138E+05             6110.625     39.505     37.222
         ROT  0.116E+07              888.752      2.981     30.725
         INT  0.159E+11             6999.377     42.486     67.947
         TR   0.207E+28             1481.254      4.968     41.214
         TOT                        8480.6310    47.4537   109.1604   456.7270

       T/K    H(0)-H(T)+PV         H(T)/Eh          T*S/Eh         G(T)/Eh
   ------------------------------------------------------------------------
    298.15    0.135147E-01    0.232492E+00    0.518656E-01    0.180627E+00
   ------------------------------------------------------------------------

         :::::::::::::::::::::::::::::::::::::::::::::::::::::
         ::                  THERMODYNAMIC                  ::
         :::::::::::::::::::::::::::::::::::::::::::::::::::::
         :: total free energy         -31.375030450692 Eh   ::
         ::.................................................::
         :: total energy              -31.555656961733 Eh   ::
         :: zero point energy           0.218977381967 Eh   ::
         :: G(RRHO) w/o ZPVE           -0.038350870925 Eh   ::
         :: G(RRHO) contrib.            0.180626511041 Eh   ::
         :::::::::::::::::::::::::::::::::::::::::::::::::::::

optimized geometry written to: xtbopt.xyz


           -------------------------------------------------
          | TOTAL ENERGY              -31.555656961733 Eh   |
          | TOTAL ENTHALPY            -31.323164834092 Eh   |
          | TOTAL FREE ENERGY         -31.375030450692 Eh   |
          | GRADIENT NORM               0.000049654108 Eh/α |
          | HOMO-LUMO GAP               3.646956066264 eV   |
           -------------------------------------------------

------------------------------------------------------------------------
 * finished run on 2025/07/14 at 11:30:23.608     
------------------------------------------------------------------------
 total:
 * wall-time:     0 d,  0 h,  0 min,  8.767 sec
 *  cpu-time:     0 d,  0 h,  1 min, 31.856 sec
 * ratio c/w:    10.478 speedup
 SCF:
 * wall-time:     0 d,  0 h,  0 min,  0.088 sec
 *  cpu-time:     0 d,  0 h,  0 min,  1.057 sec
 * ratio c/w:    11.972 speedup
 ANC optimizer:
 * wall-time:     0 d,  0 h,  0 min,  5.380 sec
 *  cpu-time:     0 d,  0 h,  1 min,  4.319 sec
 * ratio c/w:    11.956 speedup
 analytical hessian:
 * wall-time:     0 d,  0 h,  0 min,  3.290 sec
 *  cpu-time:     0 d,  0 h,  0 min, 26.392 sec
 * ratio c/w:     8.021 speedup

