      -----------------------------------------------------------      
     |                   =====================                   |     
     |                           x T B                           |     
     |                   =====================                   |     
     |                         S. Grimme                         |     
     |          Mulliken Center for Theoretical Chemistry        |     
     |                    University of Bonn                     |     
      -----------------------------------------------------------      

   * xtb version 6.7.0 (08769fc) compiled by 'albert@albert-system' on 2024-03-04

   xtb is free software: you can redistribute it and/or modify it under
   the terms of the GNU Lesser General Public License as published by
   the Free Software Foundation, either version 3 of the License, or
   (at your option) any later version.
   
   xtb is distributed in the hope that it will be useful,
   but WITHOUT ANY WARRANTY; without even the implied warranty of
   MERCHANTABILITY or FITNESS FOR A PARTICULAR PURPOSE.  See the
   GNU Lesser General Public License for more details.
   
   Cite this work as:
   * C. Bannwarth, E. Caldeweyher, S. Ehlert, A. Hansen, P. Pracht,
     J. Seibert, S. Spicher, S. Grimme, WIREs Comput. Mol. Sci., 2020, 11,
     e01493. DOI: 10.1002/wcms.1493
   
   for GFN2-xTB:
   * C. Bannwarth, S. Ehlert and S. Grimme., J. Chem. Theory Comput., 2019,
     15, 1652-1671. DOI: 10.1021/acs.jctc.8b01176
   for GFN1-xTB:
   * S. Grimme, C. Bannwarth, P. Shushkov, J. Chem. Theory Comput., 2017,
     13, 1989-2009. DOI: 10.1021/acs.jctc.7b00118
   for GFN0-xTB:
   * P. Pracht, E. Caldeweyher, S. Ehlert, S. Grimme, ChemRxiv, 2019, preprint.
     DOI: 10.26434/chemrxiv.8326202.v1
   for GFN-FF:
   * S. Spicher and S. Grimme, Angew. Chem. Int. Ed., 2020, 59, 15665-15673.
     DOI: 10.1002/anie.202004239
   
   for ALPB and GBSA implicit solvation:
   * S. Ehlert, M. Stahn, S. Spicher, S. Grimme, J. Chem. Theory Comput.,
     2021, 17, 4250-4261. DOI: 10.1021/acs.jctc.1c00471
   
   for ddCOSMO and CPCM-X implicit solvation:
   * M. Stahn, S. Ehlert, S. Grimme, J. Phys. Chem. A,
     2023, XX, XXXX-XXXX. DOI: 10.1021/acs.jpca.3c04382
   
   for DFT-D4:
   * E. Caldeweyher, C. Bannwarth and S. Grimme, J. Chem. Phys., 2017,
     147, 034112. DOI: 10.1063/1.4993215
   * E. Caldeweyher, S. Ehlert, A. Hansen, H. Neugebauer, S. Spicher,
     C. Bannwarth and S. Grimme, J. Chem. Phys., 2019, 150, 154122.
     DOI: 10.1063/1.5090222
   * E. Caldeweyher, J.-M. Mewes, S. Ehlert and S. Grimme, Phys. Chem. Chem. Phys.
     2020, 22, 8499-8512. DOI: 10.1039/D0CP00502A
   
   for sTDA-xTB:
   * S. Grimme and C. Bannwarth, J. Chem. Phys., 2016, 145, 054103.
     DOI: 10.1063/1.4959605
   
   in the mass-spec context:
   * V. Asgeirsson, C. Bauer and S. Grimme, Chem. Sci., 2017, 8, 4879.
     DOI: 10.1039/c7sc00601b
   * J. Koopman and S. Grimme, ACS Omega 2019, 4, 12, 15120-15133.
     DOI: 10.1021/acsomega.9b02011
   
   for metadynamics refer to:
   * S. Grimme, J. Chem. Theory Comput., 2019, 155, 2847-2862
     DOI: 10.1021/acs.jctc.9b00143
   
   for SPH calculations refer to:
   * S. Spicher and S. Grimme, J. Chem. Theory Comput., 2021, 17, 1701-1714
     DOI: 10.1021/acs.jctc.0c01306
   
   for ONIOM refer to:
   * C. Plett, A. Katbashev, S. Ehlert, S. Grimme, M. Bursch,
     Phys. Chem. Chem. Phys., 2023, 25, 17860-17868. DOI: 10.1039/D3CP02178E
   
   for DIPRO refer to:
   * J. Kohn, N. Gildemeister, S. Grimme, D. Fazzi, A. Hansen,
     J. Chem. Phys., 2023, just accepted.
   
   for PTB refer to:
   * S. Grimme, M. Mueller, A. Hansen, J. Chem. Phys., 2023, 158, 124111.
     DOI: 10.1063/5.0137838
   
   with help from (in alphabetical order)
   P. Atkinson, C. Bannwarth, F. Bohle, G. Brandenburg, E. Caldeweyher
   M. Checinski, S. Dohm, S. Ehlert, S. Ehrlich, I. Gerasimov, C. Hölzer
   A. Katbashev, J. Kohn, J. Koopman, C. Lavigne, S. Lehtola, F. März, M. Müller,
   F. Musil, H. Neugebauer, J. Pisarek, C. Plett, P. Pracht, F. Pultar,
   J. Seibert, P. Shushkov, S. Spicher, M. Stahn, M. Steiner, T. Strunk,
   J. Stückrath, T. Rose, and J. Unsleber
   
 * started run on 2025/07/14 at 11:29:23.985     
   ID    Z sym.   atoms
    1   15 P      1
    2    6 C      2, 5, 9-14, 20, 23
    3    1 H      3, 4, 6-8, 15-19, 21, 22, 24-26

           -------------------------------------------------
          |                Calculation Setup                |
           -------------------------------------------------

          program call               : /home/minenky/programs/xtb/xtb-dist/bin/xtb m1_00_PEt2Ph-PBE0-D3-TZ-uniMM_29.xyz --charge 0 --T --ohess extreme --cycles 5000 --acc 0.01 --iterations 5000
          coordinate file            : m1_00_PEt2Ph-PBE0-D3-TZ-uniMM_29.xyz
          omp threads                :                    12

########################################################################
[WARNING] Please study the warnings concerning your input carefully
-1- prog_main_parseArguments: Unknown option '--T' provided
########################################################################

           -------------------------------------------------
          |                 G F N 2 - x T B                 |
           -------------------------------------------------

        Reference                      10.1021/acs.jctc.8b01176
      * Hamiltonian:
        H0-scaling (s, p, d)           1.850000    2.230000    2.230000
        zeta-weighting                 0.500000
      * Dispersion:
        s8                             2.700000
        a1                             0.520000
        a2                             5.000000
        s9                             5.000000
      * Repulsion:
        kExp                           1.500000    1.000000
        rExp                           1.000000
      * Coulomb:
        alpha                          2.000000
        third order                    shell-resolved
        anisotropic                    true
        a3                             3.000000
        a5                             4.000000
        cn-shift                       1.200000
        cn-exp                         4.000000
        max-rad                        5.000000


          ...................................................
          :                      SETUP                      :
          :.................................................:
          :  # basis functions                  65          :
          :  # atomic orbitals                  64          :
          :  # shells                           38          :
          :  # electrons                        60          :
          :  max. iterations                  5000          :
          :  Hamiltonian                  GFN2-xTB          :
          :  restarted?                      false          :
          :  GBSA solvation                  false          :
          :  PC potential                    false          :
          :  electronic temp.          300.0000000     K    :
          :  accuracy                    0.0100000          :
          :  -> integral cutoff          0.4500000E+02      :
          :  -> integral neglect         0.1000000E-09      :
          :  -> SCF convergence          0.1000000E-07 Eh   :
          :  -> wf. convergence          0.1000000E-05 e    :
          :  Broyden damping             0.4000000          :
          :  net charge                          0          :
          :  unpaired electrons                  0          :
          ...................................................

 iter      E             dE          RMSdq      gap      omega  full diag
   1    -32.0126293 -0.320126E+02  0.373E+00    3.98       0.0  T
   2    -32.0581560 -0.455267E-01  0.221E+00    3.45       1.0  T
   3    -32.0581360  0.200088E-04  0.885E-01    3.16       1.0  T
   4    -32.0587182 -0.582200E-03  0.280E-01    3.19       1.0  T
   5    -32.0601204 -0.140213E-02  0.117E-01    3.23       1.0  T
   6    -32.0603211 -0.200796E-03  0.410E-02    3.22       1.0  T
   7    -32.0603367 -0.155735E-04  0.166E-02    3.22       1.2  T
   8    -32.0603375 -0.776818E-06  0.681E-03    3.22       2.9  T
   9    -32.0603380 -0.533682E-06  0.157E-03    3.22      12.5  T
  10    -32.0603381 -0.318875E-07  0.597E-04    3.22      32.9  T
  11    -32.0603381 -0.210768E-09  0.294E-04    3.22      66.7  T
  12    -32.0603381 -0.762505E-09  0.558E-05    3.22     351.4  T
  13    -32.0603381 -0.562750E-11  0.184E-05    3.22    1065.7  T
  14    -32.0603381 -0.241585E-11  0.101E-05    3.22    1946.8  T
  15    -32.0603381 -0.682121E-12  0.316E-06    3.22    6203.5  T
  16    -32.0603381 -0.120792E-12  0.111E-06    3.22   17673.4  T

   *** convergence criteria satisfied after 16 iterations ***

         #    Occupation            Energy/Eh            Energy/eV
      -------------------------------------------------------------
         1        2.0000           -0.6600259             -17.9602
       ...           ...                  ...                  ...
        24        2.0000           -0.4386136             -11.9353
        25        2.0000           -0.4227511             -11.5036
        26        2.0000           -0.4219151             -11.4809
        27        2.0000           -0.4097742             -11.1505
        28        2.0000           -0.4031524             -10.9703
        29        2.0000           -0.3988937             -10.8544
        30        2.0000           -0.3537970              -9.6273 (HOMO)
        31                         -0.2353199              -6.4034 (LUMO)
        32                         -0.2241964              -6.1007
        33                         -0.1527162              -4.1556
        34                         -0.1377640              -3.7488
        35                         -0.0900223              -2.4496
       ...                                ...                  ...
        64                          0.7835488              21.3214
      -------------------------------------------------------------
                  HL-Gap            0.1184771 Eh            3.2239 eV
             Fermi-level           -0.2945584 Eh           -8.0153 eV

 SCC (total)                   0 d,  0 h,  0 min,  0.086 sec
 SCC setup                      ...        0 min,  0.000 sec (  0.176%)
 Dispersion                     ...        0 min,  0.000 sec (  0.276%)
 classical contributions        ...        0 min,  0.000 sec (  0.078%)
 integral evaluation            ...        0 min,  0.002 sec (  2.439%)
 iterations                     ...        0 min,  0.082 sec ( 94.762%)
 molecular gradient             ...        0 min,  0.002 sec (  2.160%)
 printout                       ...        0 min,  0.000 sec (  0.088%)

         :::::::::::::::::::::::::::::::::::::::::::::::::::::
         ::                     SUMMARY                     ::
         :::::::::::::::::::::::::::::::::::::::::::::::::::::
         :: total energy             -31.545457915197 Eh    ::
         :: gradient norm              0.048892019014 Eh/a0 ::
         :: HOMO-LUMO gap              3.223926022868 eV    ::
         ::.................................................::
         :: SCC energy               -32.060067704175 Eh    ::
         :: -> isotropic ES            0.004039829841 Eh    ::
         :: -> anisotropic ES          0.005909396307 Eh    ::
         :: -> anisotropic XC          0.022443398095 Eh    ::
         :: -> dispersion             -0.024647840173 Eh    ::
         :: repulsion energy           0.514609788978 Eh    ::
         :: add. restraining           0.000000000000 Eh    ::
         :: total charge               0.000000000000 e     ::
         :::::::::::::::::::::::::::::::::::::::::::::::::::::

      ----------------------------------------------------------- 
     |                   =====================                   |
     |                        A N C O P T                        |
     |                   =====================                   |
     |               Approximate Normal Coordinate               |
     |                Rational Function Optimizer                |
      ----------------------------------------------------------- 
      ----------------------------------------------------------- 
     |                   =====================                   |
     |                        A N C O P T                        |
     |                   =====================                   |
     |               Approximate Normal Coordinate               |
     |                Rational Function Optimizer                |
      ----------------------------------------------------------- 

          ...................................................
          :                      SETUP                      :
          :.................................................:
          :   optimization level           extreme          :
          :   max. optcycles                  5000          :
          :   ANC micro-cycles                  20          :
          :   degrees of freedom                72          :
          :.................................................:
          :   RF solver                   davidson          :
          :   write xtbopt.log                true          :
          :   linear?                        false          :
          :   energy convergence         0.5000000E-07 Eh   :
          :   grad. convergence          0.5000000E-04 Eh/α :
          :   maxmium RF displ.          1.0000000          :
          :   Hlow (freq-cutoff)         0.1000000E-01      :
          :   Hmax (freq-cutoff)         5.0000000          :
          :   S6 in model hess.         20.0000000          :
          ...................................................

generating ANC from model Hessian ...
Using Lindh-Hessian (1995)
 Shifting diagonal of input Hessian by   9.654321068448919E-003
 Lowest  eigenvalues of input Hessian
    0.000000    0.000000    0.000000    0.000000    0.000000    0.000000
    0.010000    0.010449    0.010793    0.010989    0.011448    0.013110
    0.014917    0.017578    0.018789    0.019576    0.024378    0.025429
 Highest eigenvalues
    1.347121    1.534796    1.562276    1.863892    1.965952    1.986086
 

........................................................................
.............................. CYCLE    1 ..............................
........................................................................

 iter      E             dE          RMSdq      gap      omega  full diag
   1    -32.0603381 -0.320603E+02  0.397E-07    3.22       0.0  T
   2    -32.0603381 -0.284217E-13  0.229E-07    3.22   85492.8  T
   3    -32.0603381  0.000000E+00  0.129E-07    3.22  100000.0  T
     SCC iter.                  ...        0 min,  0.072 sec
     gradient                   ...        0 min,  0.002 sec
 * total energy  :   -31.5454579 Eh     change       -0.1421085E-13 Eh
   gradient norm :     0.0488920 Eh/α   predicted     0.0000000E+00 (-100.00%)
   displ. norm   :     0.3680823 α      lambda       -0.9560559E-02
   maximum displ.:     0.2110431 α      in ANC's #13, #12, #2, ...

........................................................................
.............................. CYCLE    2 ..............................
........................................................................

 iter      E             dE          RMSdq      gap      omega  full diag
   1    -32.0672650 -0.320673E+02  0.388E-01    3.50       0.0  T
   2    -32.0675208 -0.255825E-03  0.179E-01    3.55       1.0  T
   3    -32.0675455 -0.247169E-04  0.653E-02    3.59       1.0  T
   4    -32.0675458 -0.267929E-06  0.348E-02    3.59       1.0  T
   5    -32.0675530 -0.719219E-05  0.843E-03    3.59       2.3  T
   6    -32.0675543 -0.133883E-05  0.379E-03    3.59       5.2  T
   7    -32.0675544 -0.561855E-07  0.122E-03    3.59      16.1  T
   8    -32.0675544 -0.759384E-08  0.515E-04    3.59      38.1  T
   9    -32.0675544 -0.369425E-08  0.186E-04    3.59     105.3  T
  10    -32.0675544 -0.228852E-09  0.661E-05    3.59     296.7  T
  11    -32.0675544 -0.183888E-10  0.299E-05    3.59     656.5  T
  12    -32.0675544 -0.483169E-11  0.101E-05    3.59    1937.0  T
  13    -32.0675544 -0.390799E-12  0.442E-06    3.59    4436.1  T
  14    -32.0675544 -0.710543E-13  0.131E-06    3.59   15020.6  T
     SCC iter.                  ...        0 min,  0.075 sec
     gradient                   ...        0 min,  0.002 sec
 * total energy  :   -31.5509775 Eh     change       -0.5519607E-02 Eh
   gradient norm :     0.0163305 Eh/α   predicted    -0.5428185E-02 (  -1.66%)
   displ. norm   :     0.3481495 α      lambda       -0.2323995E-02
   maximum displ.:     0.1488915 α      in ANC's #2, #4, #13, ...

........................................................................
.............................. CYCLE    3 ..............................
........................................................................

 iter      E             dE          RMSdq      gap      omega  full diag
   1    -32.0711600 -0.320712E+02  0.111E-01    3.59       0.0  T
   2    -32.0711658 -0.584602E-05  0.661E-02    3.59       1.0  T
   3    -32.0711655  0.371780E-06  0.137E-02    3.59       1.4  T
   4    -32.0711663 -0.833458E-06  0.415E-03    3.58       4.7  T
   5    -32.0711665 -0.221542E-06  0.147E-03    3.58      13.3  T
   6    -32.0711665 -0.366385E-07  0.650E-04    3.58      30.2  T
   7    -32.0711665 -0.120388E-08  0.246E-04    3.58      79.7  T
   8    -32.0711665 -0.273630E-09  0.833E-05    3.58     235.5  T
   9    -32.0711665 -0.430163E-10  0.408E-05    3.58     480.7  T
  10    -32.0711665 -0.747491E-11  0.166E-05    3.58    1179.1  T
  11    -32.0711665 -0.163425E-11  0.757E-06    3.58    2592.0  T
  12    -32.0711665 -0.596856E-12  0.342E-06    3.58    5727.3  T
     SCC iter.                  ...        0 min,  0.074 sec
     gradient                   ...        0 min,  0.002 sec
 * total energy  :   -31.5525963 Eh     change       -0.1618749E-02 Eh
   gradient norm :     0.0075912 Eh/α   predicted    -0.1302912E-02 ( -19.51%)
   displ. norm   :     0.3288809 α      lambda       -0.1036783E-02
   maximum displ.:     0.1848466 α      in ANC's #4, #2, #13, ...

........................................................................
.............................. CYCLE    4 ..............................
........................................................................

 iter      E             dE          RMSdq      gap      omega  full diag
   1    -32.0719682 -0.320720E+02  0.870E-02    3.59       0.0  T
   2    -32.0719720 -0.383283E-05  0.511E-02    3.59       1.0  T
   3    -32.0719712  0.828160E-06  0.117E-02    3.59       1.7  T
   4    -32.0719721 -0.872075E-06  0.550E-03    3.59       3.6  T
   5    -32.0719726 -0.525926E-06  0.129E-03    3.59      15.2  T
   6    -32.0719726 -0.182632E-07  0.616E-04    3.59      31.8  T
   7    -32.0719726 -0.537639E-09  0.208E-04    3.59      94.2  T
   8    -32.0719726 -0.365148E-09  0.825E-05    3.59     237.7  T
   9    -32.0719726 -0.589750E-10  0.380E-05    3.59     516.1  T
  10    -32.0719726 -0.842704E-11  0.155E-05    3.59    1261.6  T
  11    -32.0719726 -0.155609E-11  0.583E-06    3.59    3363.9  T
  12    -32.0719726 -0.170530E-12  0.190E-06    3.59   10349.0  T
     SCC iter.                  ...        0 min,  0.074 sec
     gradient                   ...        0 min,  0.002 sec
 * total energy  :   -31.5532973 Eh     change       -0.7010628E-03 Eh
   gradient norm :     0.0055457 Eh/α   predicted    -0.5744798E-03 ( -18.06%)
   displ. norm   :     0.2456250 α      lambda       -0.3964071E-03
   maximum displ.:     0.1719157 α      in ANC's #4, #2, #8, ...

........................................................................
.............................. CYCLE    5 ..............................
........................................................................

 iter      E             dE          RMSdq      gap      omega  full diag
   1    -32.0727807 -0.320728E+02  0.619E-02    3.58       0.0  T
   2    -32.0727819 -0.124172E-05  0.350E-02    3.58       1.0  T
   3    -32.0727816  0.368281E-06  0.655E-03    3.58       3.0  T
   4    -32.0727819 -0.351117E-06  0.330E-03    3.58       5.9  T
   5    -32.0727821 -0.226827E-06  0.778E-04    3.58      25.2  T
   6    -32.0727821 -0.790109E-09  0.363E-04    3.58      54.0  T
   7    -32.0727821 -0.507960E-09  0.102E-04    3.58     192.8  T
   8    -32.0727821 -0.879155E-10  0.460E-05    3.58     426.0  T
   9    -32.0727821 -0.592593E-11  0.204E-05    3.58     963.1  T
  10    -32.0727821 -0.240874E-11  0.766E-06    3.58    2559.5  T
  11    -32.0727821 -0.596856E-12  0.322E-06    3.58    6097.2  T
     SCC iter.                  ...        0 min,  0.073 sec
     gradient                   ...        0 min,  0.002 sec
 * total energy  :   -31.5535960 Eh     change       -0.2986821E-03 Eh
   gradient norm :     0.0045864 Eh/α   predicted    -0.2101675E-03 ( -29.64%)
   displ. norm   :     0.2245344 α      lambda       -0.2763665E-03
   maximum displ.:     0.1730302 α      in ANC's #4, #2, #5, ...

........................................................................
.............................. CYCLE    6 ..............................
........................................................................

 iter      E             dE          RMSdq      gap      omega  full diag
   1    -32.0735142 -0.320735E+02  0.637E-02    3.58       0.0  T
   2    -32.0735151 -0.882473E-06  0.362E-02    3.58       1.0  T
   3    -32.0735147  0.341789E-06  0.644E-03    3.58       3.0  T
   4    -32.0735152 -0.451887E-06  0.213E-03    3.58       9.2  T
   5    -32.0735152 -0.440450E-07  0.877E-04    3.58      22.4  T
   6    -32.0735152 -0.910059E-08  0.436E-04    3.58      45.0  T
   7    -32.0735152 -0.949292E-09  0.114E-04    3.58     172.3  T
   8    -32.0735152 -0.183142E-09  0.430E-05    3.58     455.8  T
   9    -32.0735152 -0.109992E-10  0.182E-05    3.58    1076.6  T
  10    -32.0735152 -0.126477E-11  0.792E-06    3.58    2477.6  T
  11    -32.0735152 -0.191847E-12  0.199E-06    3.58    9831.8  T
     SCC iter.                  ...        0 min,  0.074 sec
     gradient                   ...        0 min,  0.002 sec
 * total energy  :   -31.5538216 Eh     change       -0.2255838E-03 Eh
   gradient norm :     0.0029881 Eh/α   predicted    -0.1451523E-03 ( -35.65%)
   displ. norm   :     0.2469534 α      lambda       -0.2608349E-03
   maximum displ.:     0.1931901 α      in ANC's #4, #2, #5, ...

........................................................................
.............................. CYCLE    7 ..............................
........................................................................

 iter      E             dE          RMSdq      gap      omega  full diag
   1    -32.0738984 -0.320739E+02  0.694E-02    3.57       0.0  T
   2    -32.0738994 -0.974556E-06  0.408E-02    3.58       1.0  T
   3    -32.0738989  0.477008E-06  0.780E-03    3.58       2.5  T
   4    -32.0738995 -0.645763E-06  0.203E-03    3.58       9.7  T
   5    -32.0738996 -0.114260E-07  0.109E-03    3.58      17.9  T
   6    -32.0738996 -0.189112E-07  0.455E-04    3.58      43.1  T
   7    -32.0738996 -0.104589E-08  0.104E-04    3.58     187.9  T
   8    -32.0738996 -0.117467E-09  0.393E-05    3.58     499.6  T
   9    -32.0738996 -0.134435E-10  0.166E-05    3.58    1184.0  T
  10    -32.0738996 -0.710543E-12  0.682E-06    3.58    2873.7  T
  11    -32.0738996 -0.923706E-13  0.154E-06    3.58   12740.8  T
     SCC iter.                  ...        0 min,  0.073 sec
     gradient                   ...        0 min,  0.005 sec
 * total energy  :   -31.5540449 Eh     change       -0.2232751E-03 Eh
   gradient norm :     0.0038242 Eh/α   predicted    -0.1383745E-03 ( -38.03%)
   displ. norm   :     0.3010338 α      lambda       -0.2981623E-03
   maximum displ.:     0.2306172 α      in ANC's #4, #5, #2, ...

........................................................................
.............................. CYCLE    8 ..............................
........................................................................

 iter      E             dE          RMSdq      gap      omega  full diag
   1    -32.0737865 -0.320738E+02  0.800E-02    3.58       0.0  T
   2    -32.0737877 -0.127714E-05  0.483E-02    3.58       1.0  T
   3    -32.0737871  0.683830E-06  0.986E-03    3.58       2.0  T
   4    -32.0737880 -0.929720E-06  0.234E-03    3.58       8.4  T
   5    -32.0737880  0.340476E-08  0.137E-03    3.58      14.3  T
   6    -32.0737880 -0.337689E-07  0.529E-04    3.58      37.1  T
   7    -32.0737880 -0.997105E-09  0.107E-04    3.58     182.8  T
   8    -32.0737880 -0.821245E-10  0.428E-05    3.58     458.2  T
   9    -32.0737880 -0.189218E-10  0.164E-05    3.58    1199.0  T
  10    -32.0737880 -0.646594E-12  0.686E-06    3.58    2856.9  T
  11    -32.0737880 -0.198952E-12  0.163E-06    3.58   12005.0  T
     SCC iter.                  ...        0 min,  0.074 sec
     gradient                   ...        0 min,  0.002 sec
 * total energy  :   -31.5543052 Eh     change       -0.2602986E-03 Eh
   gradient norm :     0.0067445 Eh/α   predicted    -0.1625950E-03 ( -37.54%)
   displ. norm   :     0.4008516 α      lambda       -0.4032301E-03
   maximum displ.:     0.3043759 α      in ANC's #4, #5, #6, ...

........................................................................
.............................. CYCLE    9 ..............................
........................................................................

 iter      E             dE          RMSdq      gap      omega  full diag
   1    -32.0729793 -0.320730E+02  0.101E-01    3.59       0.0  T
   2    -32.0729814 -0.211557E-05  0.617E-02    3.59       1.0  T
   3    -32.0729804  0.999787E-06  0.130E-02    3.59       1.5  T
   4    -32.0729818 -0.140460E-05  0.303E-03    3.59       6.5  T
   5    -32.0729818  0.205777E-07  0.183E-03    3.59      10.7  T
   6    -32.0729819 -0.619843E-07  0.788E-04    3.59      24.9  T
   7    -32.0729819 -0.184606E-08  0.165E-04    3.59     118.5  T
   8    -32.0729819 -0.804121E-10  0.539E-05    3.59     363.7  T
   9    -32.0729819 -0.309299E-10  0.211E-05    3.59     931.0  T
  10    -32.0729819 -0.155609E-11  0.869E-06    3.59    2255.6  T
  11    -32.0729819 -0.312639E-12  0.254E-06    3.59    7714.2  T
     SCC iter.                  ...        0 min,  0.074 sec
     gradient                   ...        0 min,  0.002 sec
 * total energy  :   -31.5546392 Eh     change       -0.3340595E-03 Eh
   gradient norm :     0.0102498 Eh/α   predicted    -0.2340131E-03 ( -29.95%)
   displ. norm   :     0.5179252 α      lambda       -0.5454691E-03
   maximum displ.:     0.4016391 α      in ANC's #4, #5, #6, ...

........................................................................
.............................. CYCLE   10 ..............................
........................................................................

 iter      E             dE          RMSdq      gap      omega  full diag
   1    -32.0714597 -0.320715E+02  0.126E-01    3.60       0.0  T
   2    -32.0714628 -0.309898E-05  0.762E-02    3.61       1.0  T
   3    -32.0714615  0.132574E-05  0.157E-02    3.61       1.3  T
   4    -32.0714634 -0.190446E-05  0.381E-03    3.61       5.2  T
   5    -32.0714633  0.299076E-07  0.229E-03    3.61       8.5  T
   6    -32.0714634 -0.996146E-07  0.103E-03    3.61      19.0  T
   7    -32.0714634 -0.273174E-08  0.248E-04    3.61      79.2  T
   8    -32.0714634 -0.838369E-10  0.650E-05    3.61     301.9  T
   9    -32.0714634 -0.463700E-10  0.270E-05    3.61     726.5  T
  10    -32.0714634 -0.326850E-11  0.102E-05    3.61    1922.1  T
  11    -32.0714634 -0.376588E-12  0.388E-06    3.61    5058.9  T
  12    -32.0714634 -0.497380E-13  0.116E-06    3.61   16870.4  T
     SCC iter.                  ...        0 min,  0.075 sec
     gradient                   ...        0 min,  0.002 sec
 * total energy  :   -31.5550299 Eh     change       -0.3906519E-03 Eh
   gradient norm :     0.0137354 Eh/α   predicted    -0.3459010E-03 ( -11.46%)
   displ. norm   :     0.3283890 α      lambda       -0.6142485E-03
   maximum displ.:     0.2489195 α      in ANC's #4, #3, #6, ...

........................................................................
.............................. CYCLE   11 ..............................
........................................................................

 iter      E             dE          RMSdq      gap      omega  full diag
   1    -32.0741271 -0.320741E+02  0.919E-02    3.62       0.0  T
   2    -32.0741283 -0.124381E-05  0.528E-02    3.62       1.0  T
   3    -32.0741282  0.150929E-06  0.720E-03    3.62       2.7  T
   4    -32.0741285 -0.344387E-06  0.262E-03    3.62       7.5  T
   5    -32.0741286 -0.382297E-07  0.121E-03    3.62      16.2  T
   6    -32.0741286 -0.225896E-07  0.496E-04    3.62      39.5  T
   7    -32.0741286 -0.781370E-09  0.135E-04    3.62     145.2  T
   8    -32.0741286 -0.116749E-09  0.518E-05    3.62     378.2  T
   9    -32.0741286 -0.128324E-10  0.195E-05    3.62    1007.8  T
  10    -32.0741286 -0.139266E-11  0.808E-06    3.62    2426.2  T
  11    -32.0741286 -0.248690E-12  0.215E-06    3.62    9121.6  T
     SCC iter.                  ...        0 min,  0.074 sec
     gradient                   ...        0 min,  0.002 sec
 * total energy  :   -31.5554692 Eh     change       -0.4393648E-03 Eh
   gradient norm :     0.0085859 Eh/α   predicted    -0.3402458E-03 ( -22.56%)
   displ. norm   :     0.5304121 α      lambda       -0.5918429E-03
   maximum displ.:     0.4125905 α      in ANC's #4, #6, #3, ...

........................................................................
.............................. CYCLE   12 ..............................
........................................................................

 iter      E             dE          RMSdq      gap      omega  full diag
   1    -32.0718476 -0.320718E+02  0.123E-01    3.64       0.0  T
   2    -32.0718540 -0.641696E-05  0.699E-02    3.64       1.0  T
   3    -32.0718536  0.370579E-06  0.227E-02    3.64       1.0  T
   4    -32.0718550 -0.133186E-05  0.535E-03    3.64       3.7  T
   5    -32.0718550  0.250456E-08  0.256E-03    3.64       7.7  T
   6    -32.0718550 -0.604462E-07  0.126E-03    3.64      15.6  T
   7    -32.0718550 -0.736195E-08  0.397E-04    3.64      49.4  T
   8    -32.0718550 -0.757439E-10  0.107E-04    3.64     183.8  T
   9    -32.0718550 -0.646594E-10  0.398E-05    3.64     493.0  T
  10    -32.0718550 -0.135714E-10  0.987E-06    3.64    1986.2  T
  11    -32.0718550 -0.433431E-12  0.466E-06    3.64    4210.0  T
     SCC iter.                  ...        0 min,  0.074 sec
     gradient                   ...        0 min,  0.002 sec
 * total energy  :   -31.5558144 Eh     change       -0.3451487E-03 Eh
   gradient norm :     0.0119002 Eh/α   predicted    -0.3791783E-03 (   9.86%)
   displ. norm   :     0.2080081 α      lambda       -0.5706225E-03
   maximum displ.:     0.1207085 α      in ANC's #4, #3, #6, ...

........................................................................
.............................. CYCLE   13 ..............................
........................................................................

 iter      E             dE          RMSdq      gap      omega  full diag
   1    -32.0775024 -0.320775E+02  0.712E-02    3.65       0.0  T
   2    -32.0775061 -0.372573E-05  0.411E-02    3.65       1.0  T
   3    -32.0775059  0.281709E-06  0.150E-02    3.65       1.3  T
   4    -32.0775067 -0.825308E-06  0.340E-03    3.65       5.8  T
   5    -32.0775067 -0.351932E-09  0.165E-03    3.65      11.9  T
   6    -32.0775067 -0.106572E-07  0.678E-04    3.65      28.9  T
   7    -32.0775067 -0.235028E-08  0.225E-04    3.65      87.1  T
   8    -32.0775067 -0.420492E-09  0.525E-05    3.65     373.8  T
   9    -32.0775067 -0.842704E-11  0.281E-05    3.65     698.8  T
  10    -32.0775067 -0.391509E-11  0.119E-05    3.65    1645.2  T
  11    -32.0775067 -0.138556E-11  0.386E-06    3.65    5080.6  T
  12    -32.0775067 -0.781597E-13  0.135E-06    3.65   14477.4  T
     SCC iter.                  ...        0 min,  0.075 sec
     gradient                   ...        0 min,  0.002 sec
 * total energy  :   -31.5561055 Eh     change       -0.2911227E-03 Eh
   gradient norm :     0.0074409 Eh/α   predicted    -0.2976635E-03 (   2.25%)
   displ. norm   :     0.4092406 α      lambda       -0.3548664E-03
   maximum displ.:     0.3258421 α      in ANC's #4, #6, #3, ...

........................................................................
.............................. CYCLE   14 ..............................
........................................................................

 iter      E             dE          RMSdq      gap      omega  full diag
   1    -32.0743199 -0.320743E+02  0.957E-02    3.65       0.0  T
   2    -32.0743239 -0.397360E-05  0.539E-02    3.65       1.0  T
   3    -32.0743240 -0.101273E-06  0.112E-02    3.65       1.8  T
   4    -32.0743241 -0.146796E-06  0.376E-03    3.65       5.2  T
   5    -32.0743242 -0.667744E-07  0.222E-03    3.65       8.8  T
   6    -32.0743243 -0.882607E-07  0.718E-04    3.65      27.3  T
   7    -32.0743243 -0.101640E-08  0.176E-04    3.65     111.6  T
   8    -32.0743243 -0.179504E-09  0.612E-05    3.65     320.6  T
   9    -32.0743243 -0.218066E-10  0.321E-05    3.65     611.4  T
  10    -32.0743243 -0.688516E-11  0.606E-06    3.65    3237.9  T
  11    -32.0743243 -0.426326E-12  0.231E-06    3.65    8475.1  T
     SCC iter.                  ...        0 min,  0.074 sec
     gradient                   ...        0 min,  0.002 sec
 * total energy  :   -31.5562721 Eh     change       -0.1666205E-03 Eh
   gradient norm :     0.0096145 Eh/α   predicted    -0.2071497E-03 (  24.32%)
   displ. norm   :     0.1531076 α      lambda       -0.2646644E-03
   maximum displ.:     0.1047540 α      in ANC's #4, #6, #3, ...

........................................................................
.............................. CYCLE   15 ..............................
........................................................................

 iter      E             dE          RMSdq      gap      omega  full diag
   1    -32.0748747 -0.320749E+02  0.570E-02    3.64       0.0  T
   2    -32.0748757 -0.943038E-06  0.328E-02    3.64       1.0  T
   3    -32.0748753  0.399506E-06  0.652E-03    3.64       3.0  T
   4    -32.0748758 -0.542526E-06  0.176E-03    3.64      11.1  T
   5    -32.0748758 -0.292401E-07  0.757E-04    3.64      25.9  T
   6    -32.0748759 -0.371594E-08  0.419E-04    3.64      46.9  T
   7    -32.0748759 -0.107794E-08  0.127E-04    3.64     154.1  T
   8    -32.0748759 -0.150635E-11  0.510E-05    3.64     384.2  T
   9    -32.0748759 -0.279670E-10  0.167E-05    3.64    1175.9  T
  10    -32.0748759 -0.117950E-11  0.618E-06    3.64    3172.1  T
  11    -32.0748759 -0.220268E-12  0.200E-06    3.64    9792.5  T
     SCC iter.                  ...        0 min,  0.074 sec
     gradient                   ...        0 min,  0.002 sec
 * total energy  :   -31.5564600 Eh     change       -0.1878644E-03 Eh
   gradient norm :     0.0056338 Eh/α   predicted    -0.1354449E-03 ( -27.90%)
   displ. norm   :     0.2376373 α      lambda       -0.3165273E-03
   maximum displ.:     0.1290206 α      in ANC's #4, #6, #1, ...

........................................................................
.............................. CYCLE   16 ..............................
........................................................................

 iter      E             dE          RMSdq      gap      omega  full diag
   1    -32.0769907 -0.320770E+02  0.988E-02    3.63       0.0  T
   2    -32.0769916 -0.919733E-06  0.572E-02    3.63       1.0  T
   3    -32.0769913  0.290944E-06  0.664E-03    3.63       3.0  T
   4    -32.0769917 -0.449101E-06  0.238E-03    3.63       8.2  T
   5    -32.0769918 -0.572230E-07  0.927E-04    3.63      21.2  T
   6    -32.0769918 -0.529833E-08  0.468E-04    3.63      41.9  T
   7    -32.0769918 -0.203324E-08  0.113E-04    3.63     173.5  T
   8    -32.0769918 -0.647020E-10  0.436E-05    3.63     450.1  T
   9    -32.0769918 -0.242579E-10  0.187E-05    3.63    1047.1  T
  10    -32.0769918 -0.246558E-11  0.635E-06    3.63    3087.8  T
  11    -32.0769918 -0.923706E-13  0.165E-06    3.63   11889.1  T
     SCC iter.                  ...        0 min,  0.074 sec
     gradient                   ...        0 min,  0.002 sec
 * total energy  :   -31.5566415 Eh     change       -0.1814991E-03 Eh
   gradient norm :     0.0046431 Eh/α   predicted    -0.1672022E-03 (  -7.88%)
   displ. norm   :     0.4651586 α      lambda       -0.2323485E-03
   maximum displ.:     0.3382054 α      in ANC's #4, #6, #3, ...

........................................................................
.............................. CYCLE   17 ..............................
........................................................................

 iter      E             dE          RMSdq      gap      omega  full diag
   1    -32.0726156 -0.320726E+02  0.115E-01    3.63       0.0  T
   2    -32.0726202 -0.457327E-05  0.670E-02    3.63       1.0  T
   3    -32.0726194  0.771622E-06  0.187E-02    3.63       1.0  T
   4    -32.0726209 -0.149168E-05  0.449E-03    3.63       4.4  T
   5    -32.0726209  0.515690E-07  0.286E-03    3.63       6.9  T
   6    -32.0726210 -0.112029E-06  0.113E-03    3.63      17.3  T
   7    -32.0726210 -0.532328E-08  0.306E-04    3.63      64.1  T
   8    -32.0726210 -0.478622E-10  0.839E-05    3.63     233.8  T
   9    -32.0726210 -0.540723E-10  0.419E-05    3.63     468.1  T
  10    -32.0726210 -0.102247E-10  0.119E-05    3.63    1646.1  T
  11    -32.0726210 -0.817124E-12  0.414E-06    3.63    4741.9  T
  12    -32.0726210 -0.710543E-13  0.128E-06    3.63   15341.4  T
     SCC iter.                  ...        0 min,  0.074 sec
     gradient                   ...        0 min,  0.002 sec
 * total energy  :   -31.5566714 Eh     change       -0.2987759E-04 Eh
   gradient norm :     0.0097919 Eh/α   predicted    -0.1413185E-03 ( 372.99%)
   displ. norm   :     0.1089501 α      lambda       -0.2663715E-03
   maximum displ.:     0.0774188 α      in ANC's #4, #3, #5, ...

........................................................................
.............................. CYCLE   18 ..............................
........................................................................

 iter      E             dE          RMSdq      gap      omega  full diag
   1    -32.0772304 -0.320772E+02  0.451E-02    3.64       0.0  T
   2    -32.0772333 -0.292848E-05  0.238E-02    3.64       1.0  T
   3    -32.0772334 -0.873384E-07  0.128E-02    3.64       1.5  T
   4    -32.0772336 -0.217760E-06  0.256E-03    3.64       7.7  T
   5    -32.0772336  0.441511E-08  0.176E-03    3.64      11.2  T
   6    -32.0772336 -0.121683E-07  0.645E-04    3.64      30.4  T
   7    -32.0772336 -0.374796E-08  0.114E-04    3.64     172.5  T
   8    -32.0772336 -0.973444E-11  0.492E-05    3.64     398.3  T
   9    -32.0772336 -0.187228E-10  0.224E-05    3.64     874.4  T
  10    -32.0772336 -0.297717E-11  0.101E-05    3.64    1946.3  T
  11    -32.0772336 -0.518696E-12  0.167E-06    3.64   11769.0  T
  12    -32.0772336 -0.497380E-13  0.648E-07    3.64   30284.4  T
     SCC iter.                  ...        0 min,  0.074 sec
     gradient                   ...        0 min,  0.002 sec
 * total energy  :   -31.5568021 Eh     change       -0.1307500E-03 Eh
   gradient norm :     0.0034538 Eh/α   predicted    -0.1347732E-03 (   3.08%)
   displ. norm   :     0.1169677 α      lambda       -0.6912825E-04
   maximum displ.:     0.0635150 α      in ANC's #6, #4, #5, ...

........................................................................
.............................. CYCLE   19 ..............................
........................................................................

 iter      E             dE          RMSdq      gap      omega  full diag
   1    -32.0778943 -0.320779E+02  0.348E-02    3.64       0.0  T
   2    -32.0778944 -0.106067E-06  0.207E-02    3.64       1.0  T
   3    -32.0778943  0.930998E-07  0.246E-03    3.64       8.0  T
   4    -32.0778945 -0.119380E-06  0.842E-04    3.64      23.3  T
   5    -32.0778945 -0.616241E-08  0.407E-04    3.64      48.2  T
   6    -32.0778945 -0.101837E-08  0.166E-04    3.64     118.5  T
   7    -32.0778945 -0.454676E-10  0.313E-05    3.64     627.4  T
   8    -32.0778945 -0.101323E-10  0.109E-05    3.64    1798.1  T
   9    -32.0778945 -0.511591E-12  0.568E-06    3.64    3450.3  T
  10    -32.0778945 -0.241585E-12  0.159E-06    3.64   12361.8  T
     SCC iter.                  ...        0 min,  0.074 sec
     gradient                   ...        0 min,  0.002 sec
 * total energy  :   -31.5568562 Eh     change       -0.5411146E-04 Eh
   gradient norm :     0.0029568 Eh/α   predicted    -0.3504215E-04 ( -35.24%)
   displ. norm   :     0.3183218 α      lambda       -0.1093974E-03
   maximum displ.:     0.1905082 α      in ANC's #4, #6, #3, ...

........................................................................
.............................. CYCLE   20 ..............................
........................................................................

 iter      E             dE          RMSdq      gap      omega  full diag
   1    -32.0770744 -0.320771E+02  0.832E-02    3.64       0.0  T
   2    -32.0770751 -0.626637E-06  0.493E-02    3.64       1.0  T
   3    -32.0770744  0.645743E-06  0.715E-03    3.64       2.7  T
   4    -32.0770752 -0.818949E-06  0.221E-03    3.64       8.9  T
   5    -32.0770753 -0.256512E-07  0.126E-03    3.64      15.5  T
   6    -32.0770753 -0.156677E-07  0.425E-04    3.64      46.2  T
   7    -32.0770753 -0.345061E-09  0.920E-05    3.64     213.1  T
   8    -32.0770753 -0.218350E-10  0.334E-05    3.64     587.4  T
   9    -32.0770753 -0.731148E-11  0.165E-05    3.64    1191.6  T
  10    -32.0770753 -0.224532E-11  0.372E-06    3.64    5267.5  T
  11    -32.0770753 -0.710543E-13  0.154E-06    3.64   12763.4  T
     SCC iter.                  ...        0 min,  0.075 sec
     gradient                   ...        0 min,  0.002 sec
 * total energy  :   -31.5569169 Eh     change       -0.6067718E-04 Eh
   gradient norm :     0.0039512 Eh/α   predicted    -0.6024280E-04 (  -0.72%)
   displ. norm   :     0.0564183 α      lambda       -0.3507253E-04
   maximum displ.:     0.0294305 α      in ANC's #6, #5, #2, ...
 * RMSD in coord.:     0.8997463 α      energy gain  -0.1145901E-01 Eh

generating ANC from model Hessian ...
Using Lindh-Hessian (1995)
 Shifting diagonal of input Hessian by   9.187758105557558E-003
 Lowest  eigenvalues of input Hessian
    0.000000    0.000000    0.000000    0.000000    0.000000    0.000000
    0.010000    0.010168    0.010573    0.011147    0.011773    0.012741
    0.015019    0.016587    0.018469    0.018692    0.024259    0.025035
 Highest eigenvalues
    1.363769    1.555044    1.573208    1.882933    1.988864    2.004537
 

........................................................................
.............................. CYCLE   21 ..............................
........................................................................

 iter      E             dE          RMSdq      gap      omega  full diag
   1    -32.0778371 -0.320778E+02  0.190E-02    3.64       0.0  T
   2    -32.0778373 -0.181213E-06  0.108E-02    3.64       1.8  T
   3    -32.0778373  0.536657E-07  0.279E-03    3.64       7.0  T
   4    -32.0778373 -0.683651E-07  0.886E-04    3.64      22.1  T
   5    -32.0778373 -0.907207E-08  0.356E-04    3.64      55.1  T
   6    -32.0778373 -0.528267E-09  0.162E-04    3.64     121.0  T
   7    -32.0778373 -0.113126E-09  0.334E-05    3.64     587.7  T
   8    -32.0778373 -0.330402E-11  0.147E-05    3.64    1330.1  T
   9    -32.0778373 -0.447642E-12  0.671E-06    3.64    2924.2  T
  10    -32.0778373 -0.284217E-12  0.237E-06    3.64    8291.9  T
     SCC iter.                  ...        0 min,  0.074 sec
     gradient                   ...        0 min,  0.002 sec
 * total energy  :   -31.5569395 Eh     change       -0.2256600E-04 Eh
   gradient norm :     0.0026032 Eh/α   predicted     0.0000000E+00 (-100.00%)
   displ. norm   :     0.0303436 α      lambda       -0.6773606E-05
   maximum displ.:     0.0148067 α      in ANC's #9, #1, #10, ...

........................................................................
.............................. CYCLE   22 ..............................
........................................................................

 iter      E             dE          RMSdq      gap      omega  full diag
   1    -32.0779093 -0.320779E+02  0.105E-02    3.64       0.0  T
   2    -32.0779093 -0.415024E-07  0.655E-03    3.64       3.0  T
   3    -32.0779093  0.721612E-08  0.124E-03    3.64      15.8  T
   4    -32.0779093 -0.122054E-07  0.412E-04    3.64      47.6  T
   5    -32.0779093 -0.799886E-09  0.201E-04    3.64      97.7  T
   6    -32.0779093 -0.519449E-09  0.102E-04    3.64     192.9  T
   7    -32.0779093 -0.238956E-10  0.207E-05    3.64     946.5  T
   8    -32.0779093 -0.459011E-11  0.589E-06    3.64    3330.1  T
   9    -32.0779093 -0.234479E-12  0.359E-06    3.64    5455.3  T
     SCC iter.                  ...        0 min,  0.077 sec
     gradient                   ...        0 min,  0.002 sec
 * total energy  :   -31.5569606 Eh     change       -0.2107410E-04 Eh
   gradient norm :     0.0010334 Eh/α   predicted    -0.1340894E-04 ( -36.37%)
   displ. norm   :     0.1026209 α      lambda       -0.3188240E-04
   maximum displ.:     0.0543406 α      in ANC's #9, #1, #10, ...

........................................................................
.............................. CYCLE   23 ..............................
........................................................................

 iter      E             dE          RMSdq      gap      omega  full diag
   1    -32.0778561 -0.320779E+02  0.286E-02    3.64       0.0  T
   2    -32.0778561 -0.606840E-07  0.172E-02    3.64       1.1  T
   3    -32.0778561  0.313491E-07  0.220E-03    3.64       8.9  T
   4    -32.0778562 -0.524572E-07  0.749E-04    3.64      26.2  T
   5    -32.0778562  0.101272E-08  0.394E-04    3.64      49.7  T
   6    -32.0778562 -0.206599E-08  0.887E-05    3.64     221.2  T
   7    -32.0778562 -0.416023E-10  0.320E-05    3.64     612.0  T
   8    -32.0778562 -0.116103E-10  0.131E-05    3.64    1499.3  T
   9    -32.0778562 -0.272848E-11  0.441E-06    3.64    4443.9  T
  10    -32.0778562 -0.710543E-13  0.167E-06    3.64   11726.1  T
     SCC iter.                  ...        0 min,  0.074 sec
     gradient                   ...        0 min,  0.002 sec
 * total energy  :   -31.5569826 Eh     change       -0.2203292E-04 Eh
   gradient norm :     0.0019838 Eh/α   predicted    -0.1601613E-04 ( -27.31%)
   displ. norm   :     0.0355907 α      lambda       -0.8531912E-05
   maximum displ.:     0.0174975 α      in ANC's #1, #9, #10, ...

........................................................................
.............................. CYCLE   24 ..............................
........................................................................

 iter      E             dE          RMSdq      gap      omega  full diag
   1    -32.0778693 -0.320779E+02  0.119E-02    3.64       0.0  T
   2    -32.0778693 -0.148096E-07  0.685E-03    3.64       2.9  T
   3    -32.0778693 -0.669715E-09  0.658E-04    3.64      29.8  T
   4    -32.0778693 -0.625995E-09  0.264E-04    3.64      74.3  T
   5    -32.0778693 -0.147194E-08  0.113E-04    3.64     173.9  T
   6    -32.0778693 -0.126875E-09  0.528E-05    3.64     371.2  T
   7    -32.0778693 -0.125766E-10  0.873E-06    3.64    2245.9  T
   8    -32.0778693 -0.746070E-12  0.459E-06    3.64    4274.4  T
     SCC iter.                  ...        0 min,  0.073 sec
     gradient                   ...        0 min,  0.002 sec
 * total energy  :   -31.5569932 Eh     change       -0.1060421E-04 Eh
   gradient norm :     0.0010701 Eh/α   predicted    -0.4269131E-05 ( -59.74%)
   displ. norm   :     0.0971023 α      lambda       -0.1405803E-04
   maximum displ.:     0.0480504 α      in ANC's #1, #10, #9, ...

........................................................................
.............................. CYCLE   25 ..............................
........................................................................

 iter      E             dE          RMSdq      gap      omega  full diag
   1    -32.0778107 -0.320778E+02  0.291E-02    3.64       0.0  T
   2    -32.0778108 -0.831162E-07  0.170E-02    3.64       1.2  T
   3    -32.0778108  0.470123E-08  0.186E-03    3.64      10.5  T
   4    -32.0778108 -0.166275E-07  0.604E-04    3.64      32.5  T
   5    -32.0778108 -0.446342E-08  0.327E-04    3.64      60.0  T
   6    -32.0778108 -0.152222E-08  0.159E-04    3.64     123.4  T
   7    -32.0778108 -0.389377E-10  0.203E-05    3.64     963.9  T
   8    -32.0778108 -0.221689E-11  0.789E-06    3.64    2485.5  T
   9    -32.0778108 -0.362377E-12  0.384E-06    3.64    5108.7  T
     SCC iter.                  ...        0 min,  0.077 sec
     gradient                   ...        0 min,  0.002 sec
 * total energy  :   -31.5570051 Eh     change       -0.1187919E-04 Eh
   gradient norm :     0.0006709 Eh/α   predicted    -0.7060379E-05 ( -40.57%)
   displ. norm   :     0.0398754 α      lambda       -0.3013917E-05
   maximum displ.:     0.0212537 α      in ANC's #1, #5, #6, ...

........................................................................
.............................. CYCLE   26 ..............................
........................................................................

 iter      E             dE          RMSdq      gap      omega  full diag
   1    -32.0778603 -0.320779E+02  0.139E-02    3.64       0.0  T
   2    -32.0778603 -0.334677E-07  0.795E-03    3.64       2.5  T
   3    -32.0778603 -0.174808E-08  0.103E-03    3.64      19.0  T
   4    -32.0778603 -0.131411E-08  0.419E-04    3.64      46.8  T
   5    -32.0778603 -0.176722E-08  0.111E-04    3.64     176.2  T
   6    -32.0778603 -0.153406E-09  0.606E-05    3.64     323.8  T
   7    -32.0778603 -0.353282E-10  0.181E-05    3.64    1084.2  T
   8    -32.0778603 -0.255795E-12  0.682E-06    3.64    2875.2  T
   9    -32.0778603 -0.362377E-12  0.258E-06    3.64    7595.1  T
     SCC iter.                  ...        0 min,  0.076 sec
     gradient                   ...        0 min,  0.002 sec
 * total energy  :   -31.5570082 Eh     change       -0.3100002E-05 Eh
   gradient norm :     0.0006461 Eh/α   predicted    -0.1508887E-05 ( -51.33%)
   displ. norm   :     0.0529517 α      lambda       -0.3576024E-05
   maximum displ.:     0.0281513 α      in ANC's #1, #5, #3, ...

........................................................................
.............................. CYCLE   27 ..............................
........................................................................

 iter      E             dE          RMSdq      gap      omega  full diag
   1    -32.0780158 -0.320780E+02  0.142E-02    3.64       0.0  T
   2    -32.0780158 -0.157494E-07  0.834E-03    3.64       2.4  T
   3    -32.0780158  0.276904E-08  0.637E-04    3.64      30.8  T
   4    -32.0780158 -0.412184E-08  0.363E-04    3.64      54.0  T
   5    -32.0780158 -0.258155E-08  0.999E-05    3.64     196.3  T
   6    -32.0780158 -0.153833E-10  0.485E-05    3.64     404.7  T
   7    -32.0780158  0.370903E-11  0.202E-05    3.64     968.7  T
   8    -32.0780158 -0.895994E-11  0.453E-06    3.64    4327.4  T
   9    -32.0780158 -0.184741E-12  0.133E-06    3.64   14784.9  T
     SCC iter.                  ...        0 min,  0.075 sec
     gradient                   ...        0 min,  0.002 sec
 * total energy  :   -31.5570124 Eh     change       -0.4213888E-05 Eh
   gradient norm :     0.0004358 Eh/α   predicted    -0.1791850E-05 ( -57.48%)
   displ. norm   :     0.0588959 α      lambda       -0.3341523E-05
   maximum displ.:     0.0336961 α      in ANC's #5, #1, #3, ...

........................................................................
.............................. CYCLE   28 ..............................
........................................................................

 iter      E             dE          RMSdq      gap      omega  full diag
   1    -32.0779609 -0.320780E+02  0.140E-02    3.64       0.0  T
   2    -32.0779610 -0.175618E-07  0.814E-03    3.64       2.4  T
   3    -32.0779610  0.175627E-08  0.758E-04    3.64      25.9  T
   4    -32.0779610 -0.233955E-08  0.395E-04    3.64      49.6  T
   5    -32.0779610 -0.313397E-08  0.130E-04    3.64     151.0  T
   6    -32.0779610 -0.159545E-09  0.605E-05    3.64     324.0  T
   7    -32.0779610 -0.114042E-10  0.133E-05    3.64    1470.1  T
   8    -32.0779610 -0.206057E-11  0.573E-06    3.64    3421.0  T
   9    -32.0779610 -0.326850E-12  0.204E-06    3.64    9605.1  T
     SCC iter.                  ...        0 min,  0.073 sec
     gradient                   ...        0 min,  0.002 sec
 * total energy  :   -31.5570162 Eh     change       -0.3827051E-05 Eh
   gradient norm :     0.0002292 Eh/α   predicted    -0.1674435E-05 ( -56.25%)
   displ. norm   :     0.0525801 α      lambda       -0.2340691E-05
   maximum displ.:     0.0319318 α      in ANC's #5, #1, #3, ...

........................................................................
.............................. CYCLE   29 ..............................
........................................................................

 iter      E             dE          RMSdq      gap      omega  full diag
   1    -32.0779977 -0.320780E+02  0.124E-02    3.64       0.0  T
   2    -32.0779977 -0.223010E-07  0.719E-03    3.64       2.7  T
   3    -32.0779977 -0.399830E-09  0.786E-04    3.64      24.9  T
   4    -32.0779977 -0.786272E-09  0.360E-04    3.64      54.5  T
   5    -32.0779977 -0.239604E-08  0.106E-04    3.64     184.7  T
   6    -32.0779977 -0.129717E-09  0.567E-05    3.64     346.0  T
   7    -32.0779977 -0.105302E-10  0.140E-05    3.64    1402.8  T
   8    -32.0779977  0.142109E-13  0.666E-06    3.64    2943.3  T
   9    -32.0779977 -0.103739E-11  0.152E-06    3.64   12895.4  T
     SCC iter.                  ...        0 min,  0.074 sec
     gradient                   ...        0 min,  0.002 sec
 * total energy  :   -31.5570188 Eh     change       -0.2541183E-05 Eh
   gradient norm :     0.0003391 Eh/α   predicted    -0.1173026E-05 ( -53.84%)
   displ. norm   :     0.0477279 α      lambda       -0.1492433E-05
   maximum displ.:     0.0278319 α      in ANC's #5, #1, #3, ...

........................................................................
.............................. CYCLE   30 ..............................
........................................................................

 iter      E             dE          RMSdq      gap      omega  full diag
   1    -32.0779675 -0.320780E+02  0.110E-02    3.64       0.0  T
   2    -32.0779675 -0.130043E-07  0.640E-03    3.64       3.1  T
   3    -32.0779675  0.108080E-08  0.830E-04    3.64      23.6  T
   4    -32.0779675 -0.331823E-08  0.322E-04    3.64      61.0  T
   5    -32.0779675 -0.286185E-09  0.141E-04    3.64     139.0  T
   6    -32.0779675 -0.445425E-09  0.593E-05    3.64     330.5  T
   7    -32.0779675 -0.795808E-11  0.130E-05    3.64    1510.2  T
   8    -32.0779675 -0.305533E-12  0.410E-06    3.64    4784.9  T
   9    -32.0779675 -0.994760E-13  0.178E-06    3.64   11043.5  T
     SCC iter.                  ...        0 min,  0.074 sec
     gradient                   ...        0 min,  0.002 sec
 * total energy  :   -31.5570202 Eh     change       -0.1470240E-05 Eh
   gradient norm :     0.0002314 Eh/α   predicted    -0.7472411E-06 ( -49.18%)
   displ. norm   :     0.0319799 α      lambda       -0.7132602E-06
   maximum displ.:     0.0178539 α      in ANC's #1, #5, #2, ...

........................................................................
.............................. CYCLE   31 ..............................
........................................................................

 iter      E             dE          RMSdq      gap      omega  full diag
   1    -32.0779514 -0.320780E+02  0.726E-03    3.64       0.0  T
   2    -32.0779514 -0.907935E-08  0.419E-03    3.64       4.7  T
   3    -32.0779514 -0.267299E-09  0.490E-04    3.64      40.0  T
   4    -32.0779514 -0.949072E-10  0.209E-04    3.64      93.6  T
   5    -32.0779514 -0.890864E-09  0.709E-05    3.64     276.6  T
   6    -32.0779514 -0.554508E-10  0.282E-05    3.64     694.7  T
   7    -32.0779514 -0.866862E-12  0.728E-06    3.64    2694.0  T
   8    -32.0779514 -0.284217E-12  0.294E-06    3.64    6665.1  T
     SCC iter.                  ...        0 min,  0.073 sec
     gradient                   ...        0 min,  0.002 sec
 * total energy  :   -31.5570209 Eh     change       -0.6569323E-06 Eh
   gradient norm :     0.0001301 Eh/α   predicted    -0.3582332E-06 ( -45.47%)
   displ. norm   :     0.0163323 α      lambda       -0.3333892E-06
   maximum displ.:     0.0091107 α      in ANC's #1, #2, #5, ...

........................................................................
.............................. CYCLE   32 ..............................
........................................................................

 iter      E             dE          RMSdq      gap      omega  full diag
   1    -32.0779654 -0.320780E+02  0.435E-03    3.64       0.0  T
   2    -32.0779654 -0.196942E-08  0.254E-03    3.64       7.7  T
   3    -32.0779654  0.127812E-09  0.274E-04    3.64      71.5  T
   4    -32.0779654 -0.278298E-09  0.118E-04    3.64     166.7  T
   5    -32.0779654 -0.285567E-09  0.317E-05    3.64     619.1  T
   6    -32.0779654 -0.166480E-10  0.187E-05    3.64    1050.3  T
   7    -32.0779654 -0.130740E-11  0.523E-06    3.64    3751.8  T
   8    -32.0779654 -0.156319E-12  0.201E-06    3.64    9736.7  T
     SCC iter.                  ...        0 min,  0.073 sec
     gradient                   ...        0 min,  0.002 sec
 * total energy  :   -31.5570213 Eh     change       -0.3728013E-06 Eh
   gradient norm :     0.0000734 Eh/α   predicted    -0.1711955E-06 ( -54.08%)
   displ. norm   :     0.0159046 α      lambda       -0.3258689E-06
   maximum displ.:     0.0090762 α      in ANC's #2, #1, #6, ...

........................................................................
.............................. CYCLE   33 ..............................
........................................................................

 iter      E             dE          RMSdq      gap      omega  full diag
   1    -32.0779743 -0.320780E+02  0.504E-03    3.64       0.0  T
   2    -32.0779743 -0.157940E-08  0.296E-03    3.64       6.6  T
   3    -32.0779743  0.436835E-09  0.231E-04    3.64      85.0  T
   4    -32.0779743 -0.426311E-09  0.133E-04    3.64     147.6  T
   5    -32.0779743 -0.461746E-09  0.312E-05    3.64     627.9  T
   6    -32.0779743  0.105160E-11  0.143E-05    3.64    1374.6  T
   7    -32.0779743 -0.216005E-11  0.465E-06    3.64    4220.9  T
   8    -32.0779743 -0.191847E-12  0.133E-06    3.64   14710.5  T
     SCC iter.                  ...        0 min,  0.073 sec
     gradient                   ...        0 min,  0.002 sec
 * total energy  :   -31.5570216 Eh     change       -0.3580203E-06 Eh
   gradient norm :     0.0001054 Eh/α   predicted    -0.1646833E-06 ( -54.00%)
   displ. norm   :     0.0155719 α      lambda       -0.2321342E-06
   maximum displ.:     0.0090097 α      in ANC's #2, #1, #10, ...

........................................................................
.............................. CYCLE   34 ..............................
........................................................................

 iter      E             dE          RMSdq      gap      omega  full diag
   1    -32.0779603 -0.320780E+02  0.517E-03    3.64       0.0  T
   2    -32.0779603 -0.734893E-09  0.304E-03    3.64       6.4  T
   3    -32.0779603 -0.263185E-10  0.130E-04    3.64     150.5  T
   4    -32.0779603 -0.256406E-09  0.647E-05    3.64     303.1  T
   5    -32.0779603 -0.451976E-10  0.226E-05    3.64     868.5  T
   6    -32.0779603 -0.660805E-12  0.820E-06    3.64    2390.2  T
   7    -32.0779603 -0.355271E-12  0.192E-06    3.64   10192.9  T
     SCC iter.                  ...        0 min,  0.073 sec
     gradient                   ...        0 min,  0.002 sec
 * total energy  :   -31.5570218 Eh     change       -0.2202989E-06 Eh
   gradient norm :     0.0000796 Eh/α   predicted    -0.1188436E-06 ( -46.05%)
   displ. norm   :     0.0066259 α      lambda       -0.7845561E-07
   maximum displ.:     0.0038800 α      in ANC's #2, #10, #1, ...

........................................................................
.............................. CYCLE   35 ..............................
........................................................................

 iter      E             dE          RMSdq      gap      omega  full diag
   1    -32.0779666 -0.320780E+02  0.241E-03    3.64       0.0  T
   2    -32.0779666 -0.295934E-09  0.141E-03    3.64      13.9  T
   3    -32.0779666 -0.664713E-10  0.789E-05    3.64     248.5  T
   4    -32.0779666 -0.142464E-10  0.337E-05    3.64     582.1  T
   5    -32.0779666 -0.657963E-11  0.120E-05    3.64    1631.9  T
   6    -32.0779666 -0.419220E-12  0.663E-06    3.64    2960.2  T
   7    -32.0779666 -0.412115E-12  0.153E-06    3.64   12817.7  T
     SCC iter.                  ...        0 min,  0.079 sec
     gradient                   ...        0 min,  0.002 sec
 * total energy  :   -31.5570219 Eh     change       -0.7461728E-07 Eh
   gradient norm :     0.0000418 Eh/α   predicted    -0.4019909E-07 ( -46.13%)
   displ. norm   :     0.0064831 α      lambda        0.2896121E-07
   maximum displ.:     0.0037858 α      in ANC's #2, #10, #1, ...

........................................................................
.............................. CYCLE   36 ..............................
........................................................................

 iter      E             dE          RMSdq      gap      omega  full diag
   1    -32.0779719 -0.320780E+02  0.236E-03    3.64       0.0  T
   2    -32.0779719 -0.291877E-09  0.139E-03    3.64      14.1  T
   3    -32.0779719 -0.644818E-10  0.790E-05    3.64     248.3  T
   4    -32.0779719 -0.145519E-10  0.335E-05    3.64     585.8  T
   5    -32.0779719 -0.597566E-11  0.117E-05    3.64    1680.5  T
   6    -32.0779719 -0.362377E-12  0.636E-06    3.64    3085.9  T
   7    -32.0779719 -0.362377E-12  0.150E-06    3.64   13095.1  T
     SCC iter.                  ...        0 min,  0.076 sec
     gradient                   ...        0 min,  0.002 sec
 * total energy  :   -31.5570219 Eh     change        0.1635113E-07 Eh
   gradient norm :     0.0001006 Eh/α   predicted     0.1446674E-07 ( -11.52%)
   displ. norm   :     0.0031657 α      lambda       -0.5496512E-07
   maximum displ.:     0.0016851 α      in ANC's #6, #10, #2, ...

........................................................................
.............................. CYCLE   37 ..............................
........................................................................

 iter      E             dE          RMSdq      gap      omega  full diag
   1    -32.0779692 -0.320780E+02  0.145E-03    3.64       0.0  T
   2    -32.0779692 -0.273545E-09  0.853E-04    3.64      23.0  T
   3    -32.0779692  0.712177E-10  0.111E-04    3.64     177.2  T
   4    -32.0779692 -0.105914E-09  0.436E-05    3.64     450.1  T
   5    -32.0779692 -0.205631E-10  0.161E-05    3.64    1219.2  T
   6    -32.0779692 -0.336087E-11  0.665E-06    3.64    2948.1  T
   7    -32.0779692 -0.277112E-12  0.217E-06    3.64    9027.9  T
     SCC iter.                  ...        0 min,  0.074 sec
     gradient                   ...        0 min,  0.003 sec
 * total energy  :   -31.5570220 Eh     change       -0.5380376E-07 Eh
   gradient norm :     0.0000287 Eh/α   predicted    -0.2958237E-07 ( -45.02%)
   displ. norm   :     0.0034831 α      lambda        0.2003738E-07
   maximum displ.:     0.0018257 α      in ANC's #6, #10, #2, ...

........................................................................
.............................. CYCLE   38 ..............................
........................................................................

 iter      E             dE          RMSdq      gap      omega  full diag
   1    -32.0779661 -0.320780E+02  0.153E-03    3.64       0.0  T
   2    -32.0779661 -0.283698E-09  0.904E-04    3.64      21.7  T
   3    -32.0779661  0.882778E-10  0.114E-04    3.64     171.8  T
   4    -32.0779661 -0.125809E-09  0.444E-05    3.64     441.5  T
   5    -32.0779661 -0.230997E-10  0.164E-05    3.64    1193.1  T
   6    -32.0779661 -0.316192E-11  0.697E-06    3.64    2811.9  T
   7    -32.0779661 -0.312639E-12  0.226E-06    3.64    8676.9  T
     SCC iter.                  ...        0 min,  0.074 sec
     gradient                   ...        0 min,  0.003 sec
 * total energy  :   -31.5570219 Eh     change        0.1396907E-07 Eh
   gradient norm :     0.0000869 Eh/α   predicted     0.9875272E-08 ( -29.31%)
   displ. norm   :     0.0017750 α      lambda       -0.3923500E-07
   maximum displ.:     0.0011309 α      in ANC's #2, #3, #6, ...

........................................................................
.............................. CYCLE   39 ..............................
........................................................................

 iter      E             dE          RMSdq      gap      omega  full diag
   1    -32.0779614 -0.320780E+02  0.104E-03    3.64       0.0  T
   2    -32.0779614 -0.148162E-09  0.609E-04    3.64      32.2  T
   3    -32.0779614 -0.873968E-11  0.743E-05    3.64     263.9  T
   4    -32.0779614 -0.194404E-10  0.289E-05    3.64     678.8  T
   5    -32.0779614 -0.171951E-11  0.718E-06    3.64    2730.8  T
   6    -32.0779614 -0.419220E-12  0.365E-06    3.64    5370.0  T
     SCC iter.                  ...        0 min,  0.074 sec
     gradient                   ...        0 min,  0.002 sec
 * total energy  :   -31.5570220 Eh     change       -0.3861849E-07 Eh
   gradient norm :     0.0000241 Eh/α   predicted    -0.2052877E-07 ( -46.84%)
   displ. norm   :     0.0017750 α      lambda        0.0000000E+00
   maximum displ.:     0.0011309 α      in ANC's #2, #3, #6, ...

   *** GEOMETRY OPTIMIZATION CONVERGED AFTER 39 ITERATIONS ***

------------------------------------------------------------------------
 total energy gain   :        -0.0115641 Eh       -7.2566 kcal/mol
 total RMSD          :         0.9596902 a0        0.5078 Å
 total power (kW/mol):        -0.7784983 (step)  -10.0203 (real)
------------------------------------------------------------------------

 ANCopt (total)                0 d,  0 h,  0 min,  3.030 sec
 optimizer setup                ...        0 min,  0.000 sec (  0.003%)
 model hessian                  ...        0 min,  0.014 sec (  0.475%)
 ANC generation                 ...        0 min,  0.001 sec (  0.023%)
 coordinate transformation      ...        0 min,  0.000 sec (  0.012%)
 single point calculation       ...        0 min,  3.007 sec ( 99.235%)
 optimization log               ...        0 min,  0.002 sec (  0.082%)
 hessian update                 ...        0 min,  0.002 sec (  0.063%)
 rational function              ...        0 min,  0.002 sec (  0.078%)

================
 final structure:
================
26
 xtb: 6.7.0 (08769fc)
P            1.69033245081251       -0.31188124583233       -2.83950008393478
C            0.33554462104752       -0.63425460070150       -1.59684987540474
H           -0.61310713833827       -0.47540392396088       -2.11801895973608
H            0.36532181334853       -1.67304016041444       -1.25787386275862
C            0.44584299165069        0.31701790131653       -0.41344397105291
H            0.41659738839410        1.35065532259827       -0.75270809998162
H            1.38506378076536        0.15964673848330        0.11480448434393
H           -0.37435286708747        0.15940088761452        0.28510189176753
C            3.14211204925422       -0.87243699902087       -1.85452076754342
C            3.20704306258723       -2.08345275450332       -1.17524159165917
C            4.23315693261738       -0.01206207744474       -1.80224506948536
C            4.34044664462565       -2.42316493103540       -0.45999039899341
C            5.36787157894329       -0.35118191907117       -1.08725514181018
C            5.42267999513569       -1.55939856741326       -0.41400951907581
H            2.37321121031623       -2.77100156433043       -1.19895900187659
H            4.18148634987953        0.92984021816702       -2.33094296712730
H            4.38096567057343       -3.36718238785077        0.06512941106746
H            6.20928751739427        0.32592478240694       -1.05456980234675
H            6.30605039212566       -1.82951412182093        0.14617811128345
C            1.43714706732573       -1.83280599658711       -3.89139586364935
H            1.34357634813271       -2.72158762428056       -3.26188543769954
H            0.49220450146261       -1.69365489608813       -4.42471076775934
C            2.57757000673143       -2.00119182765252       -4.88569494670506
H            3.52082400289626       -2.14693474436067       -4.36128638038614
H            2.67049409927308       -1.11545581586937       -5.51111419792406
H            2.40336553013279       -2.86184469234761       -5.52944919155238
 
 Bond Distances (Angstroems)
 ---------------------------
P1-C2=1.8664         P1-C9=1.8418         P1-C20=1.8665        C2-P1=1.8664         C2-H3=1.0940         C2-H4=1.0931         
C2-C5=1.5223         H3-C2=1.0940         H4-C2=1.0931         C5-C2=1.5223         C5-H6=1.0883         C5-H7=1.0890         
C5-H8=1.0888         H6-C5=1.0883         H7-C5=1.0890         H8-C5=1.0888         C9-P1=1.8418         C9-C10=1.3900        
C9-C11=1.3905        C10-C9=1.3900        C10-C12=1.3826       C10-H15=1.0810       C11-C9=1.3905        C11-C13=1.3834       
C11-H16=1.0814       C12-C10=1.3826       C12-C14=1.3854       C12-H17=1.0810       C13-C11=1.3834       C13-C14=1.3842       
C13-H18=1.0805       C14-C12=1.3854       C14-C13=1.3842       C14-H19=1.0803       H15-C10=1.0810       H16-C11=1.0814       
H17-C12=1.0810       H18-C13=1.0805       H19-C14=1.0803       C20-P1=1.8665        C20-H21=1.0931       C20-H22=1.0939       
C20-C23=1.5223       H21-C20=1.0931       H22-C20=1.0939       C23-C20=1.5223       C23-H24=1.0890       C23-H25=1.0883       
C23-H26=1.0888       H24-C23=1.0890       H25-C23=1.0883       H26-C23=1.0888       
 C  H  Rav=1.0874 sigma=0.0050  Rmin=1.0803  Rmax=1.0940    15
 C  C  Rav=1.4201 sigma=0.0591  Rmin=1.3826  Rmax=1.5223     8
 P  C  Rav=1.8582 sigma=0.0116  Rmin=1.8418  Rmax=1.8665     3
 
 selected bond angles (degree)
 --------------------
C9-P1-C2= 99.41                C20-P1-C2= 97.82               C20-P1-C9= 99.23               H3-C2-P1=106.69                
H4-C2-P1=110.54                H4-C2-H3=108.02                C5-C2-P1=110.92                C5-C2-H3=110.02                
C5-C2-H4=110.54                H6-C5-C2=110.44                H7-C5-C2=110.44                H7-C5-H6=108.16                
H8-C5-C2=110.71                H8-C5-H6=108.50                H8-C5-H7=108.51                C10-C9-P1=124.29               
C11-C9-P1=116.76               C11-C9-C10=118.95              C12-C10-C9=120.34              H15-C10-C9=120.49              
H15-C10-C12=119.17             
 
 selected dihedral angles (degree)
 ---------------------------------
H3-C2-P1-C9=188.10            H3-C2-P1-C20=288.87           H4-C2-P1-C9=305.31            H4-C2-P1-C20= 46.07           
C5-C2-P1-C9= 68.28            C5-C2-P1-C20=169.04           H6-C5-C2-P1= 56.99            H6-C5-C2-H3=299.19            
H6-C5-C2-H4=179.97            H7-C5-C2-P1=297.40            H7-C5-C2-H3=179.59            H7-C5-C2-H4= 60.37            
H8-C5-C2-P1=177.19            H8-C5-C2-H3= 59.38            H8-C5-C2-H4=300.16            C10-C9-P1-C2= 49.07           
C10-C9-P1-C20=309.48          C11-C9-P1-C2=229.01           C11-C9-P1-C20=129.42          C12-C10-C9-P1=179.95          
C12-C10-C9-C11=  0.00         H15-C10-C9-P1=359.94          H15-C10-C9-C11=179.99         
           -------------------------------------------------
          |                Final Singlepoint                |
           -------------------------------------------------

          ...................................................
          :                      SETUP                      :
          :.................................................:
          :  # basis functions                  65          :
          :  # atomic orbitals                  64          :
          :  # shells                           38          :
          :  # electrons                        60          :
          :  max. iterations                  5000          :
          :  Hamiltonian                  GFN2-xTB          :
          :  restarted?                      false          :
          :  GBSA solvation                  false          :
          :  PC potential                    false          :
          :  electronic temp.          300.0000000     K    :
          :  accuracy                    0.0100000          :
          :  -> integral cutoff          0.4500000E+02      :
          :  -> integral neglect         0.1000000E-09      :
          :  -> SCF convergence          0.1000000E-07 Eh   :
          :  -> wf. convergence          0.1000000E-05 e    :
          :  Broyden damping             0.4000000          :
          :  net charge                          0          :
          :  unpaired electrons                  0          :
          ...................................................

 iter      E             dE          RMSdq      gap      omega  full diag
   1    -32.0779614 -0.320780E+02  0.113E-06    3.64       0.0  T
   2    -32.0779614  0.000000E+00  0.695E-07    3.64   28237.5  T
   3    -32.0779614  0.710543E-14  0.400E-07    3.64   48976.5  T

   *** convergence criteria satisfied after 3 iterations ***

         #    Occupation            Energy/Eh            Energy/eV
      -------------------------------------------------------------
         1        2.0000           -0.6581197             -17.9083
       ...           ...                  ...                  ...
        24        2.0000           -0.4364939             -11.8776
        25        2.0000           -0.4232583             -11.5174
        26        2.0000           -0.4194696             -11.4143
        27        2.0000           -0.4052714             -11.0280
        28        2.0000           -0.4045289             -11.0078
        29        2.0000           -0.3969990             -10.8029
        30        2.0000           -0.3672909              -9.9945 (HOMO)
        31                         -0.2336435              -6.3578 (LUMO)
        32                         -0.2230334              -6.0690
        33                         -0.1548778              -4.2144
        34                         -0.1507359              -4.1017
        35                         -0.0928032              -2.5253
       ...                                ...                  ...
        64                          0.7794337              21.2095
      -------------------------------------------------------------
                  HL-Gap            0.1336475 Eh            3.6367 eV
             Fermi-level           -0.3004672 Eh           -8.1761 eV

 SCC (total)                   0 d,  0 h,  0 min,  0.074 sec
 SCC setup                      ...        0 min,  0.000 sec (  0.080%)
 Dispersion                     ...        0 min,  0.000 sec (  0.088%)
 classical contributions        ...        0 min,  0.000 sec (  0.012%)
 integral evaluation            ...        0 min,  0.001 sec (  1.699%)
 iterations                     ...        0 min,  0.071 sec ( 95.091%)
 molecular gradient             ...        0 min,  0.002 sec (  2.923%)
 printout                       ...        0 min,  0.000 sec (  0.086%)

         :::::::::::::::::::::::::::::::::::::::::::::::::::::
         ::                     SUMMARY                     ::
         :::::::::::::::::::::::::::::::::::::::::::::::::::::
         :: total energy             -31.557021974806 Eh    ::
         :: gradient norm              0.000024146216 Eh/a0 ::
         :: HOMO-LUMO gap              3.636732651589 eV    ::
         ::.................................................::
         :: SCC energy               -32.077694226496 Eh    ::
         :: -> isotropic ES            0.004212878454 Eh    ::
         :: -> anisotropic ES          0.005889385224 Eh    ::
         :: -> anisotropic XC          0.021484712529 Eh    ::
         :: -> dispersion             -0.024028168944 Eh    ::
         :: repulsion energy           0.520672251690 Eh    ::
         :: add. restraining           0.000000000000 Eh    ::
         :: total charge               0.000000000000 e     ::
         :::::::::::::::::::::::::::::::::::::::::::::::::::::

           ------------------------------------------------- 
          |                Numerical Hessian                |
           ------------------------------------------------- 
step length          :   0.00500
SCC accuracy         :   0.30000
Hessian scale factor :   1.00000
frozen atoms in %    :   0.00000    0
RMS gradient         :   0.00002
estimated CPU  time      1.09 min
estimated wall time      0.14 min

writing file <hessian>.

 projected vibrational frequencies (cm⁻¹)
eigval :       -0.00    -0.00    -0.00     0.00     0.00     0.00
eigval :       17.94    50.13    64.91   121.16   122.35   164.22
eigval :      199.45   213.88   232.51   295.24   318.30   320.53
eigval :      363.63   401.28   450.35   586.12   657.50   668.62
eigval :      687.43   704.73   735.17   753.41   780.22   875.02
eigval :      899.17   926.86   932.97   969.38   975.69   998.46
eigval :     1003.53  1020.06  1062.81  1082.81  1085.12  1116.94
eigval :     1121.56  1181.71  1198.86  1217.01  1229.73  1244.55
eigval :     1255.29  1278.93  1315.80  1410.38  1411.08  1423.54
eigval :     1442.61  1449.89  1458.00  1497.21  1497.33  1501.61
eigval :     1501.81  1579.97  1589.64  2931.61  2936.92  2944.65
eigval :     2951.29  3013.96  3014.42  3019.44  3019.49  3029.43
eigval :     3030.54  3061.30  3063.70  3070.69  3076.92  3087.66
           -------------------------------------------------
          |                Property Printout                |
           -------------------------------------------------

    * Orbital Energies and Occupations

         #    Occupation            Energy/Eh            Energy/eV
      -------------------------------------------------------------
         1        2.0000           -0.6581197             -17.9083
       ...           ...                  ...                  ...
        18        2.0000           -0.4773506             -12.9894
        19        2.0000           -0.4746562             -12.9161
        20        2.0000           -0.4704109             -12.8005
        21        2.0000           -0.4563116             -12.4169
        22        2.0000           -0.4562019             -12.4139
        23        2.0000           -0.4422871             -12.0352
        24        2.0000           -0.4364939             -11.8776
        25        2.0000           -0.4232583             -11.5174
        26        2.0000           -0.4194696             -11.4143
        27        2.0000           -0.4052714             -11.0280
        28        2.0000           -0.4045289             -11.0078
        29        2.0000           -0.3969990             -10.8029
        30        2.0000           -0.3672909              -9.9945 (HOMO)
        31                         -0.2336435              -6.3578 (LUMO)
        32                         -0.2230334              -6.0690
        33                         -0.1548778              -4.2144
        34                         -0.1507359              -4.1017
        35                         -0.0928032              -2.5253
        36                          0.0045381               0.1235
        37                          0.0549727               1.4959
        38                          0.0923775               2.5137
        39                          0.1107989               3.0150
        40                          0.1351993               3.6790
        41                          0.1375463               3.7428
       ...                                ...                  ...
        64                          0.7794336              21.2095
      -------------------------------------------------------------
                  HL-Gap            0.1336475 Eh            3.6367 eV
             Fermi-level           -0.3004672 Eh           -8.1761 eV

     #   Z          covCN         q      C6AA      α(0)
     1  15 P        3.056    -0.118   165.594    23.117
     2   6 C        3.748    -0.047    21.475     6.610
     3   1 H        0.926     0.039     2.469     2.457
     4   1 H        0.925     0.042     2.420     2.433
     5   6 C        3.821    -0.096    22.316     6.723
     6   1 H        0.925     0.042     2.428     2.437
     7   1 H        0.925     0.036     2.501     2.473
     8   1 H        0.925     0.033     2.546     2.495
     9   6 C        2.916     0.011    27.768     8.641
    10   6 C        2.961    -0.027    28.680     8.784
    11   6 C        3.016    -0.030    28.728     8.792
    12   6 C        2.919    -0.031    28.784     8.798
    13   6 C        2.918    -0.030    28.749     8.792
    14   6 C        2.920    -0.029    28.734     8.790
    15   1 H        0.926     0.032     2.564     2.504
    16   1 H        0.925     0.040     2.451     2.448
    17   1 H        0.926     0.028     2.619     2.531
    18   1 H        0.926     0.030     2.588     2.516
    19   1 H        0.926     0.029     2.603     2.523
    20   6 C        3.748    -0.047    21.475     6.610
    21   1 H        0.925     0.042     2.418     2.432
    22   1 H        0.926     0.039     2.468     2.457
    23   6 C        3.821    -0.096    22.317     6.723
    24   1 H        0.925     0.036     2.501     2.473
    25   1 H        0.925     0.042     2.428     2.437
    26   1 H        0.925     0.033     2.546     2.495

 Mol. C6AA /au·bohr⁶  :       7598.909061
 Mol. C8AA /au·bohr⁸  :     202574.180522
 Mol. α(0) /au        :        139.489962


Wiberg/Mayer (AO) data.
largest (>0.10) Wiberg bond orders for each atom

 ---------------------------------------------------------------------------
     #   Z sym  total        # sym  WBO       # sym  WBO       # sym  WBO
 ---------------------------------------------------------------------------
     1  15 P    3.349 --     2 C    1.025    20 C    1.024     9 C    1.007
     2   6 C    3.993 --     1 P    1.025     5 C    1.017     3 H    0.958
                             4 H    0.951
     3   1 H    0.998 --     2 C    0.958
     4   1 H    0.998 --     2 C    0.951
     5   6 C    3.995 --     2 C    1.017     6 H    0.985     8 H    0.985
                             7 H    0.984
     6   1 H    0.998 --     5 C    0.985
     7   1 H    0.999 --     5 C    0.984
     8   1 H    0.999 --     5 C    0.985
     9   6 C    3.983 --    11 C    1.408    10 C    1.400     1 P    1.007
                            14 C    0.108
    10   6 C    3.993 --    12 C    1.450     9 C    1.400    15 H    0.961
                            13 C    0.111
    11   6 C    3.992 --    13 C    1.443     9 C    1.408    16 H    0.964
                            12 C    0.108
    12   6 C    3.993 --    10 C    1.450    14 C    1.432    17 H    0.970
                            11 C    0.108
    13   6 C    3.992 --    11 C    1.443    14 C    1.441    18 H    0.970
                            10 C    0.111
    14   6 C    3.985 --    13 C    1.441    12 C    1.432    19 H    0.971
                             9 C    0.108
    15   1 H    0.999 --    10 C    0.961
    16   1 H    0.998 --    11 C    0.964
    17   1 H    0.999 --    12 C    0.970
    18   1 H    0.999 --    13 C    0.970
    19   1 H    0.999 --    14 C    0.971
    20   6 C    3.993 --     1 P    1.024    23 C    1.017    22 H    0.958
                            21 H    0.951
    21   1 H    0.998 --    20 C    0.951
    22   1 H    0.998 --    20 C    0.958
    23   6 C    3.995 --    20 C    1.017    25 H    0.985    26 H    0.984
                            24 H    0.984
    24   1 H    0.999 --    23 C    0.984
    25   1 H    0.998 --    23 C    0.985
    26   1 H    0.999 --    23 C    0.984
 ---------------------------------------------------------------------------

Topologies differ in total number of bonds
Writing topology from bond orders to xtbtopo.mol

molecular dipole:
                 x           y           z       tot (Debye)
 q only:       -0.074      -0.214       0.075
   full:       -0.076      -0.580       0.265       1.633
molecular quadrupole (traceless):
                xx          xy          yy          xz          yz          zz
 q only:        0.095      -0.333       0.931       0.852       1.789      -1.027
  q+dip:        2.173      -1.129       3.586       4.357       1.578      -5.760
   full:        1.829      -1.960       2.174       2.924       3.863      -4.003

           -------------------------------------------------
          |                Geometry Summary                 |
           -------------------------------------------------

      molecular mass/u    :      166.2002322
   center of mass at/Å    :        2.7324505      -0.9933331      -1.9888409
  moments of inertia/u·Å² :        0.4041556E+03   0.6829385E+03   0.8627434E+03
rotational constants/cm⁻¹ :        0.4171074E-01   0.2468397E-01   0.1953957E-01

 * 25 selected distances

     #   Z          #   Z                                           value/Å
     1  15 P        2   6 C                                       1.8664284
     2   6 C        3   1 H                                       1.0939795
     2   6 C        4   1 H                                       1.0930998
     2   6 C        5   6 C                                       1.5223453
     5   6 C        6   1 H                                       1.0882840
     5   6 C        7   1 H                                       1.0890124
     5   6 C        8   1 H                                       1.0888209
     9   6 C       10   6 C                                       1.3900344
     9   6 C       11   6 C                                       1.3904521
    10   6 C       12   6 C                                       1.3826036
    11   6 C       13   6 C                                       1.3833982
    12   6 C       14   6 C                                       1.3854371
    13   6 C       14   6 C                                       1.3842151
    10   6 C       15   1 H                                       1.0810003
    11   6 C       16   1 H                                       1.0813748
    12   6 C       17   1 H                                       1.0810004
    13   6 C       18   1 H                                       1.0805197
    14   6 C       19   1 H                                       1.0803315 (min)
     1  15 P       20   6 C                                       1.8664941 (max)
    20   6 C       21   1 H                                       1.0931477
    20   6 C       22   1 H                                       1.0939399
    20   6 C       23   6 C                                       1.5223499
    23   6 C       24   1 H                                       1.0890242
    23   6 C       25   1 H                                       1.0882613
    23   6 C       26   1 H                                       1.0888022

 * 3 distinct bonds (by element types)

   Z      Z             #   av. dist./Å        max./Å        min./Å
   1 H    6 C          15     1.0873732     1.0939795     1.0803315
   6 C    6 C           8     1.4201045     1.5223499     1.3826036
   6 C   15 P           2     1.8664612     1.8664941     1.8664284

           -------------------------------------------------
          |               Frequency Printout                |
           -------------------------------------------------
 projected vibrational frequencies (cm⁻¹)
eigval :       -0.00    -0.00    -0.00     0.00     0.00     0.00
eigval :       17.94    50.13    64.91   121.16   122.35   164.22
eigval :      199.45   213.88   232.51   295.24   318.30   320.53
eigval :      363.63   401.28   450.35   586.12   657.50   668.62
eigval :      687.43   704.73   735.17   753.41   780.22   875.02
eigval :      899.17   926.86   932.97   969.38   975.69   998.46
eigval :     1003.53  1020.06  1062.81  1082.81  1085.12  1116.94
eigval :     1121.56  1181.71  1198.86  1217.01  1229.73  1244.55
eigval :     1255.29  1278.93  1315.80  1410.38  1411.08  1423.54
eigval :     1442.61  1449.89  1458.00  1497.21  1497.33  1501.61
eigval :     1501.81  1579.97  1589.64  2931.61  2936.92  2944.65
eigval :     2951.29  3013.96  3014.42  3019.44  3019.49  3029.43
eigval :     3030.54  3061.30  3063.70  3070.69  3076.92  3087.66
 reduced masses (amu)
   1: 14.88   2: 12.13   3: 14.18   4: 11.49   5: 12.93   6: 11.98   7:  9.53   8:  9.93
   9:  8.93  10:  7.12  11: 10.86  12:  6.89  13:  5.90  14:  5.27  15:  6.34  16: 10.37
  17: 12.89  18: 13.99  19:  8.83  20: 20.93  21: 10.12  22: 11.18  23: 10.31  24: 12.37
  25: 16.41  26: 16.18  27:  2.77  28:  4.03  29:  4.81  30:  3.30  31:  3.54  32:  4.19
  33:  3.01  34: 11.09  35:  2.22  36:  3.66  37:  2.97  38:  4.29  39:  9.72  40:  7.84
  41:  9.40  42:  7.68  43:  5.35  44:  1.33  45:  1.92  46:  3.62  47:  3.38  48:  4.54
  49:  4.27  50:  3.43  51: 11.95  52:  2.91  53:  2.96  54:  8.59  55:  2.03  56:  2.58
  57:  7.86  58:  1.52  59:  1.52  60:  1.56  61:  1.56  62: 11.45  63: 11.46  64:  1.95
  65:  1.96  66:  1.53  67:  1.50  68:  1.92  69:  1.92  70:  1.80  71:  1.80  72:  1.43
  73:  1.42  74:  1.76  75:  1.79  76:  1.82  77:  1.86  78:  1.91
 IR intensities (km·mol⁻¹)
   1:  0.05   2:  0.15   3:  0.09   4:  0.09   5:  0.01   6:  0.08   7:  0.08   8:  0.06
   9:  0.02  10:  0.09  11:  0.32  12:  0.28  13:  0.22  14:  0.17  15:  0.57  16:  0.13
  17:  0.26  18:  0.08  19:  0.00  20:  5.97  21:  2.23  22:  0.16  23:  0.39  24:  7.26
  25: 36.48  26: 28.31  27: 17.94  28:  0.11  29: 38.40  30:  0.01  31:  0.01  32:  0.02
  33:  0.00  34:  0.84  35:  4.20  36:  3.47  37:  2.60  38:  0.36  39:  6.55  40:  0.28
  41:  0.40  42:  4.89  43:  3.96  44:  0.02  45:  0.63  46:  0.55  47:  3.45  48:  6.13
  49:  7.62  50:  1.79  51:  0.97  52:  3.97  53:  0.14  54:  2.02  55:  0.30  56:  0.24
  57:  0.61  58:  0.50  59:  4.69  60:  0.57  61:  2.21  62:  0.68  63:  0.34  64:  1.33
  65: 49.68  66:  3.94  67: 39.21  68: 50.53  69: 48.04  70: 50.11  71: 13.53  72: 10.42
  73: 22.07  74:  9.99  75:  8.74  76: 12.49  77: 83.17  78: 62.49
 Raman intensities (Ä⁴*amu⁻¹)
   1:  0.00   2:  0.00   3:  0.00   4:  0.00   5:  0.00   6:  0.00   7:  0.00   8:  0.00
   9:  0.00  10:  0.00  11:  0.00  12:  0.00  13:  0.00  14:  0.00  15:  0.00  16:  0.00
  17:  0.00  18:  0.00  19:  0.00  20:  0.00  21:  0.00  22:  0.00  23:  0.00  24:  0.00
  25:  0.00  26:  0.00  27:  0.00  28:  0.00  29:  0.00  30:  0.00  31:  0.00  32:  0.00
  33:  0.00  34:  0.00  35:  0.00  36:  0.00  37:  0.00  38:  0.00  39:  0.00  40:  0.00
  41:  0.00  42:  0.00  43:  0.00  44:  0.00  45:  0.00  46:  0.00  47:  0.00  48:  0.00
  49:  0.00  50:  0.00  51:  0.00  52:  0.00  53:  0.00  54:  0.00  55:  0.00  56:  0.00
  57:  0.00  58:  0.00  59:  0.00  60:  0.00  61:  0.00  62:  0.00  63:  0.00  64:  0.00
  65:  0.00  66:  0.00  67:  0.00  68:  0.00  69:  0.00  70:  0.00  71:  0.00  72:  0.00
  73:  0.00  74:  0.00  75:  0.00  76:  0.00  77:  0.00  78:  0.00
 output can be read by thermo (or use thermo option).
 writing <g98.out> molden fake output.
 recommended (thermochemical) frequency scaling factor: 1.0
           -------------------------------------------------
          |             Thermodynamic Functions             |
           -------------------------------------------------

Refinement of some symmetry elements was terminated before convergence was reached.
Some symmetry elements may remain unidentified.
Molecule has the following symmetry elements: (sigma) 
It seems to be the Cs point group
cs  symmetry found (for desy threshold:  0.10E+00) used in thermo

          ...................................................
          :                      SETUP                      :
          :.................................................:
          :  # frequencies                          72      :
          :  # imaginary freq.                       0      :
          :  linear?                             false      :
          :  only rotor calc.                    false      :
          :  symmetry                               cs      :
          :  rotational number                       1      :
          :  scaling factor                  1.0000000      :
          :  rotor cutoff                   50.0000000 cm⁻¹ :
          :  imag. cutoff                  -20.0000000 cm⁻¹ :
          :.................................................:

    mode    ω/cm⁻¹     T·S(HO)/kcal·mol⁻¹    T·S(FR)/kcal·mol⁻¹   T·S(vib)
   ------------------------------------------------------------------------
       1     17.94    -2.04224 (  1.63%)    -1.35972 ( 98.37%)    -1.37085
       2     50.13    -1.43479 ( 50.26%)    -1.05564 ( 49.74%)    -1.24619
       3     64.91    -1.28261 ( 73.97%)    -0.97910 ( 26.03%)    -1.20360
       4    121.16    -0.91884 ( 97.18%)    -0.79429 (  2.82%)    -0.91533
       5    122.35    -0.91320 ( 97.29%)    -0.79139 (  2.71%)    -0.90990
       6    164.22    -0.74554 ( 99.15%)    -0.70421 (  0.85%)    -0.74519
       7    199.45    -0.63750 ( 99.61%)    -0.64665 (  0.39%)    -0.63754
       8    213.88    -0.59938 ( 99.70%)    -0.62596 (  0.30%)    -0.59946
       9    232.51    -0.55441 ( 99.79%)    -0.60122 (  0.21%)    -0.55451
      10    295.24    -0.43045 ( 99.92%)    -0.53046 (  0.08%)    -0.43053
   ------------------------------------------------------------------------

   temp. (K)  partition function   enthalpy   heat capacity  entropy
                                   cal/mol     cal/K/mol   cal/K/mol   J/K/mol
 298.15  VIB  0.381E+05             6235.855     39.139     38.705
         ROT  0.118E+07              888.752      2.981     30.763
         INT  0.449E+11             7124.608     42.119     69.467
         TR   0.207E+28             1481.254      4.968     41.214
         TOT                        8605.8614    47.0876   110.6810   463.0895

       T/K    H(0)-H(T)+PV         H(T)/Eh          T*S/Eh         G(T)/Eh
   ------------------------------------------------------------------------
    298.15    0.137143E-01    0.232228E+00    0.525881E-01    0.179640E+00
   ------------------------------------------------------------------------

         :::::::::::::::::::::::::::::::::::::::::::::::::::::
         ::                  THERMODYNAMIC                  ::
         :::::::::::::::::::::::::::::::::::::::::::::::::::::
         :: total free energy         -31.377382104907 Eh   ::
         ::.................................................::
         :: total energy              -31.557021974806 Eh   ::
         :: zero point energy           0.218513688575 Eh   ::
         :: G(RRHO) w/o ZPVE           -0.038873818675 Eh   ::
         :: G(RRHO) contrib.            0.179639869900 Eh   ::
         :::::::::::::::::::::::::::::::::::::::::::::::::::::

optimized geometry written to: xtbopt.xyz


           -------------------------------------------------
          | TOTAL ENERGY              -31.557021974806 Eh   |
          | TOTAL ENTHALPY            -31.324793973073 Eh   |
          | TOTAL FREE ENERGY         -31.377382104907 Eh   |
          | GRADIENT NORM               0.000024145798 Eh/α |
          | HOMO-LUMO GAP               3.636732680136 eV   |
           -------------------------------------------------

------------------------------------------------------------------------
 * finished run on 2025/07/14 at 11:29:30.269     
------------------------------------------------------------------------
 total:
 * wall-time:     0 d,  0 h,  0 min,  6.284 sec
 *  cpu-time:     0 d,  0 h,  1 min,  2.760 sec
 * ratio c/w:     9.988 speedup
 SCF:
 * wall-time:     0 d,  0 h,  0 min,  0.086 sec
 *  cpu-time:     0 d,  0 h,  0 min,  1.033 sec
 * ratio c/w:    11.955 speedup
 ANC optimizer:
 * wall-time:     0 d,  0 h,  0 min,  3.105 sec
 *  cpu-time:     0 d,  0 h,  0 min, 36.802 sec
 * ratio c/w:    11.853 speedup
 analytical hessian:
 * wall-time:     0 d,  0 h,  0 min,  3.082 sec
 *  cpu-time:     0 d,  0 h,  0 min, 24.818 sec
 * ratio c/w:     8.052 speedup

