      -----------------------------------------------------------      
     |                   =====================                   |     
     |                           x T B                           |     
     |                   =====================                   |     
     |                         S. Grimme                         |     
     |          Mulliken Center for Theoretical Chemistry        |     
     |                    University of Bonn                     |     
      -----------------------------------------------------------      

   * xtb version 6.7.0 (08769fc) compiled by 'albert@albert-system' on 2024-03-04

   xtb is free software: you can redistribute it and/or modify it under
   the terms of the GNU Lesser General Public License as published by
   the Free Software Foundation, either version 3 of the License, or
   (at your option) any later version.
   
   xtb is distributed in the hope that it will be useful,
   but WITHOUT ANY WARRANTY; without even the implied warranty of
   MERCHANTABILITY or FITNESS FOR A PARTICULAR PURPOSE.  See the
   GNU Lesser General Public License for more details.
   
   Cite this work as:
   * C. Bannwarth, E. Caldeweyher, S. Ehlert, A. Hansen, P. Pracht,
     J. Seibert, S. Spicher, S. Grimme, WIREs Comput. Mol. Sci., 2020, 11,
     e01493. DOI: 10.1002/wcms.1493
   
   for GFN2-xTB:
   * C. Bannwarth, S. Ehlert and S. Grimme., J. Chem. Theory Comput., 2019,
     15, 1652-1671. DOI: 10.1021/acs.jctc.8b01176
   for GFN1-xTB:
   * S. Grimme, C. Bannwarth, P. Shushkov, J. Chem. Theory Comput., 2017,
     13, 1989-2009. DOI: 10.1021/acs.jctc.7b00118
   for GFN0-xTB:
   * P. Pracht, E. Caldeweyher, S. Ehlert, S. Grimme, ChemRxiv, 2019, preprint.
     DOI: 10.26434/chemrxiv.8326202.v1
   for GFN-FF:
   * S. Spicher and S. Grimme, Angew. Chem. Int. Ed., 2020, 59, 15665-15673.
     DOI: 10.1002/anie.202004239
   
   for ALPB and GBSA implicit solvation:
   * S. Ehlert, M. Stahn, S. Spicher, S. Grimme, J. Chem. Theory Comput.,
     2021, 17, 4250-4261. DOI: 10.1021/acs.jctc.1c00471
   
   for ddCOSMO and CPCM-X implicit solvation:
   * M. Stahn, S. Ehlert, S. Grimme, J. Phys. Chem. A,
     2023, XX, XXXX-XXXX. DOI: 10.1021/acs.jpca.3c04382
   
   for DFT-D4:
   * E. Caldeweyher, C. Bannwarth and S. Grimme, J. Chem. Phys., 2017,
     147, 034112. DOI: 10.1063/1.4993215
   * E. Caldeweyher, S. Ehlert, A. Hansen, H. Neugebauer, S. Spicher,
     C. Bannwarth and S. Grimme, J. Chem. Phys., 2019, 150, 154122.
     DOI: 10.1063/1.5090222
   * E. Caldeweyher, J.-M. Mewes, S. Ehlert and S. Grimme, Phys. Chem. Chem. Phys.
     2020, 22, 8499-8512. DOI: 10.1039/D0CP00502A
   
   for sTDA-xTB:
   * S. Grimme and C. Bannwarth, J. Chem. Phys., 2016, 145, 054103.
     DOI: 10.1063/1.4959605
   
   in the mass-spec context:
   * V. Asgeirsson, C. Bauer and S. Grimme, Chem. Sci., 2017, 8, 4879.
     DOI: 10.1039/c7sc00601b
   * J. Koopman and S. Grimme, ACS Omega 2019, 4, 12, 15120-15133.
     DOI: 10.1021/acsomega.9b02011
   
   for metadynamics refer to:
   * S. Grimme, J. Chem. Theory Comput., 2019, 155, 2847-2862
     DOI: 10.1021/acs.jctc.9b00143
   
   for SPH calculations refer to:
   * S. Spicher and S. Grimme, J. Chem. Theory Comput., 2021, 17, 1701-1714
     DOI: 10.1021/acs.jctc.0c01306
   
   for ONIOM refer to:
   * C. Plett, A. Katbashev, S. Ehlert, S. Grimme, M. Bursch,
     Phys. Chem. Chem. Phys., 2023, 25, 17860-17868. DOI: 10.1039/D3CP02178E
   
   for DIPRO refer to:
   * J. Kohn, N. Gildemeister, S. Grimme, D. Fazzi, A. Hansen,
     J. Chem. Phys., 2023, just accepted.
   
   for PTB refer to:
   * S. Grimme, M. Mueller, A. Hansen, J. Chem. Phys., 2023, 158, 124111.
     DOI: 10.1063/5.0137838
   
   with help from (in alphabetical order)
   P. Atkinson, C. Bannwarth, F. Bohle, G. Brandenburg, E. Caldeweyher
   M. Checinski, S. Dohm, S. Ehlert, S. Ehrlich, I. Gerasimov, C. Hölzer
   A. Katbashev, J. Kohn, J. Koopman, C. Lavigne, S. Lehtola, F. März, M. Müller,
   F. Musil, H. Neugebauer, J. Pisarek, C. Plett, P. Pracht, F. Pultar,
   J. Seibert, P. Shushkov, S. Spicher, M. Stahn, M. Steiner, T. Strunk,
   J. Stückrath, T. Rose, and J. Unsleber
   
 * started run on 2025/07/14 at 11:34:07.684     
   ID    Z sym.   atoms
    1   15 P      1
    2    6 C      2, 5, 9-14, 20, 23
    3    1 H      3, 4, 6-8, 15-19, 21, 22, 24-26

           -------------------------------------------------
          |                Calculation Setup                |
           -------------------------------------------------

          program call               : /home/minenky/programs/xtb/xtb-dist/bin/xtb m1_00_PEt2Ph-PBE0-D3-TZ-uniMM_51.xyz --charge 0 --T --ohess extreme --cycles 5000 --acc 0.01 --iterations 5000
          coordinate file            : m1_00_PEt2Ph-PBE0-D3-TZ-uniMM_51.xyz
          omp threads                :                    12

########################################################################
[WARNING] Please study the warnings concerning your input carefully
-1- prog_main_parseArguments: Unknown option '--T' provided
########################################################################

           -------------------------------------------------
          |                 G F N 2 - x T B                 |
           -------------------------------------------------

        Reference                      10.1021/acs.jctc.8b01176
      * Hamiltonian:
        H0-scaling (s, p, d)           1.850000    2.230000    2.230000
        zeta-weighting                 0.500000
      * Dispersion:
        s8                             2.700000
        a1                             0.520000
        a2                             5.000000
        s9                             5.000000
      * Repulsion:
        kExp                           1.500000    1.000000
        rExp                           1.000000
      * Coulomb:
        alpha                          2.000000
        third order                    shell-resolved
        anisotropic                    true
        a3                             3.000000
        a5                             4.000000
        cn-shift                       1.200000
        cn-exp                         4.000000
        max-rad                        5.000000


          ...................................................
          :                      SETUP                      :
          :.................................................:
          :  # basis functions                  65          :
          :  # atomic orbitals                  64          :
          :  # shells                           38          :
          :  # electrons                        60          :
          :  max. iterations                  5000          :
          :  Hamiltonian                  GFN2-xTB          :
          :  restarted?                      false          :
          :  GBSA solvation                  false          :
          :  PC potential                    false          :
          :  electronic temp.          300.0000000     K    :
          :  accuracy                    0.0100000          :
          :  -> integral cutoff          0.4500000E+02      :
          :  -> integral neglect         0.1000000E-09      :
          :  -> SCF convergence          0.1000000E-07 Eh   :
          :  -> wf. convergence          0.1000000E-05 e    :
          :  Broyden damping             0.4000000          :
          :  net charge                          0          :
          :  unpaired electrons                  0          :
          ...................................................

 iter      E             dE          RMSdq      gap      omega  full diag
   1    -32.0111539 -0.320112E+02  0.398E+00    4.00       0.0  T
   2    -32.0551964 -0.440425E-01  0.239E+00    3.58       1.0  T
   3    -32.0544794  0.716986E-03  0.898E-01    3.33       1.0  T
   4    -32.0559727 -0.149332E-02  0.283E-01    3.37       1.0  T
   5    -32.0572999 -0.132721E-02  0.126E-01    3.41       1.0  T
   6    -32.0575056 -0.205681E-03  0.448E-02    3.40       1.0  T
   7    -32.0575207 -0.151191E-04  0.155E-02    3.40       1.3  T
   8    -32.0575213 -0.536205E-06  0.699E-03    3.40       2.8  T
   9    -32.0575217 -0.450330E-06  0.167E-03    3.40      11.8  T
  10    -32.0575218 -0.327338E-07  0.626E-04    3.40      31.3  T
  11    -32.0575218  0.106866E-10  0.279E-04    3.40      70.3  T
  12    -32.0575218 -0.818737E-09  0.414E-05    3.40     473.8  T
  13    -32.0575218 -0.598277E-11  0.174E-05    3.40    1126.8  T
  14    -32.0575218 -0.682121E-12  0.713E-06    3.40    2751.8  T
  15    -32.0575218 -0.781597E-13  0.248E-06    3.40    7902.9  T

   *** convergence criteria satisfied after 15 iterations ***

         #    Occupation            Energy/Eh            Energy/eV
      -------------------------------------------------------------
         1        2.0000           -0.6602108             -17.9653
       ...           ...                  ...                  ...
        24        2.0000           -0.4390908             -11.9483
        25        2.0000           -0.4261945             -11.5973
        26        2.0000           -0.4178662             -11.3707
        27        2.0000           -0.4072320             -11.0813
        28        2.0000           -0.4009616             -10.9107
        29        2.0000           -0.3984537             -10.8425
        30        2.0000           -0.3555075              -9.6739 (HOMO)
        31                         -0.2304585              -6.2711 (LUMO)
        32                         -0.2211752              -6.0185
        33                         -0.1482354              -4.0337
        34                         -0.1362402              -3.7073
        35                         -0.0914086              -2.4874
       ...                                ...                  ...
        64                          0.8002403              21.7756
      -------------------------------------------------------------
                  HL-Gap            0.1250490 Eh            3.4028 eV
             Fermi-level           -0.2929830 Eh           -7.9725 eV

 SCC (total)                   0 d,  0 h,  0 min,  0.087 sec
 SCC setup                      ...        0 min,  0.000 sec (  0.145%)
 Dispersion                     ...        0 min,  0.000 sec (  0.154%)
 classical contributions        ...        0 min,  0.000 sec (  0.011%)
 integral evaluation            ...        0 min,  0.002 sec (  2.145%)
 iterations                     ...        0 min,  0.083 sec ( 95.361%)
 molecular gradient             ...        0 min,  0.002 sec (  2.064%)
 printout                       ...        0 min,  0.000 sec (  0.097%)

         :::::::::::::::::::::::::::::::::::::::::::::::::::::
         ::                     SUMMARY                     ::
         :::::::::::::::::::::::::::::::::::::::::::::::::::::
         :: total energy             -31.542477277677 Eh    ::
         :: gradient norm              0.047917864793 Eh/a0 ::
         :: HOMO-LUMO gap              3.402757173791 eV    ::
         ::.................................................::
         :: SCC energy               -32.057311065087 Eh    ::
         :: -> isotropic ES            0.004352121195 Eh    ::
         :: -> anisotropic ES          0.005832933997 Eh    ::
         :: -> anisotropic XC          0.022167824891 Eh    ::
         :: -> dispersion             -0.023870656689 Eh    ::
         :: repulsion energy           0.514833787410 Eh    ::
         :: add. restraining           0.000000000000 Eh    ::
         :: total charge              -0.000000000000 e     ::
         :::::::::::::::::::::::::::::::::::::::::::::::::::::

      ----------------------------------------------------------- 
     |                   =====================                   |
     |                        A N C O P T                        |
     |                   =====================                   |
     |               Approximate Normal Coordinate               |
     |                Rational Function Optimizer                |
      ----------------------------------------------------------- 
      ----------------------------------------------------------- 
     |                   =====================                   |
     |                        A N C O P T                        |
     |                   =====================                   |
     |               Approximate Normal Coordinate               |
     |                Rational Function Optimizer                |
      ----------------------------------------------------------- 

          ...................................................
          :                      SETUP                      :
          :.................................................:
          :   optimization level           extreme          :
          :   max. optcycles                  5000          :
          :   ANC micro-cycles                  20          :
          :   degrees of freedom                72          :
          :.................................................:
          :   RF solver                   davidson          :
          :   write xtbopt.log                true          :
          :   linear?                        false          :
          :   energy convergence         0.5000000E-07 Eh   :
          :   grad. convergence          0.5000000E-04 Eh/α :
          :   maxmium RF displ.          1.0000000          :
          :   Hlow (freq-cutoff)         0.1000000E-01      :
          :   Hmax (freq-cutoff)         5.0000000          :
          :   S6 in model hess.         20.0000000          :
          ...................................................

generating ANC from model Hessian ...
Using Lindh-Hessian (1995)
 Shifting diagonal of input Hessian by   1.370269350657441E-002
 Lowest  eigenvalues of input Hessian
    0.010000    0.000000    0.000000    0.000000    0.000000    0.000000
    0.000000    0.014193    0.014821    0.015183    0.015862    0.016414
    0.019050    0.021787    0.022577    0.023265    0.027142    0.027572
 Highest eigenvalues
    1.351145    1.539270    1.566402    1.868227    1.970283    1.989968
 

........................................................................
.............................. CYCLE    1 ..............................
........................................................................

 iter      E             dE          RMSdq      gap      omega  full diag
   1    -32.0575218 -0.320575E+02  0.137E-06    3.40       0.0  T
   2    -32.0575218  0.000000E+00  0.779E-07    3.40   25166.4  T
   3    -32.0575218 -0.142109E-13  0.517E-07    3.40   37968.7  T
     SCC iter.                  ...        0 min,  0.074 sec
     gradient                   ...        0 min,  0.002 sec
 * total energy  :   -31.5424773 Eh     change       -0.4263256E-13 Eh
   gradient norm :     0.0479179 Eh/α   predicted     0.0000000E+00 (-100.00%)
   displ. norm   :     0.5085388 α      lambda       -0.1302252E-01
   maximum displ.:     0.2676647 α      in ANC's #2, #1, #11, ...

........................................................................
.............................. CYCLE    2 ..............................
........................................................................

 iter      E             dE          RMSdq      gap      omega  full diag
   1    -32.0681783 -0.320682E+02  0.389E-01    3.61       0.0  T
   2    -32.0684008 -0.222425E-03  0.193E-01    3.63       1.0  T
   3    -32.0684219 -0.211424E-04  0.719E-02    3.66       1.0  T
   4    -32.0684253 -0.337759E-05  0.347E-02    3.66       1.0  T
   5    -32.0684301 -0.484151E-05  0.117E-02    3.66       1.7  T
   6    -32.0684323 -0.212554E-05  0.437E-03    3.66       4.5  T
   7    -32.0684323 -0.115080E-07  0.134E-03    3.66      14.6  T
   8    -32.0684323 -0.186553E-07  0.397E-04    3.66      49.4  T
   9    -32.0684323 -0.309419E-08  0.138E-04    3.66     141.9  T
  10    -32.0684323 -0.808740E-10  0.575E-05    3.66     341.2  T
  11    -32.0684323 -0.126263E-10  0.245E-05    3.66     800.8  T
  12    -32.0684323 -0.105871E-11  0.759E-06    3.66    2582.8  T
  13    -32.0684323 -0.355271E-12  0.354E-06    3.66    5532.2  T
     SCC iter.                  ...        0 min,  0.076 sec
     gradient                   ...        0 min,  0.002 sec
 * total energy  :   -31.5505381 Eh     change       -0.8060824E-02 Eh
   gradient norm :     0.0158432 Eh/α   predicted    -0.8195216E-02 (   1.67%)
   displ. norm   :     0.4257004 α      lambda       -0.3648621E-02
   maximum displ.:     0.2440513 α      in ANC's #2, #1, #9, ...

........................................................................
.............................. CYCLE    3 ..............................
........................................................................

 iter      E             dE          RMSdq      gap      omega  full diag
   1    -32.0716599 -0.320717E+02  0.152E-01    3.66       0.0  T
   2    -32.0716681 -0.824631E-05  0.940E-02    3.65       1.0  T
   3    -32.0716663  0.183971E-05  0.169E-02    3.65       1.2  T
   4    -32.0716689 -0.268250E-05  0.685E-03    3.65       2.9  T
   5    -32.0716695 -0.588862E-06  0.212E-03    3.65       9.2  T
   6    -32.0716696 -0.698870E-07  0.969E-04    3.65      20.2  T
   7    -32.0716696 -0.220597E-08  0.476E-04    3.65      41.2  T
   8    -32.0716696 -0.672422E-09  0.217E-04    3.65      90.3  T
   9    -32.0716696 -0.378776E-09  0.625E-05    3.65     313.6  T
  10    -32.0716696 -0.234479E-10  0.286E-05    3.65     685.2  T
  11    -32.0716696 -0.331823E-11  0.101E-05    3.65    1945.7  T
  12    -32.0716696 -0.255795E-12  0.371E-06    3.65    5283.1  T
  13    -32.0716696 -0.994760E-13  0.122E-06    3.65   16128.8  T
     SCC iter.                  ...        0 min,  0.076 sec
     gradient                   ...        0 min,  0.002 sec
 * total energy  :   -31.5532416 Eh     change       -0.2703472E-02 Eh
   gradient norm :     0.0082770 Eh/α   predicted    -0.2154946E-02 ( -20.29%)
   displ. norm   :     0.4272106 α      lambda       -0.2041832E-02
   maximum displ.:     0.2247508 α      in ANC's #2, #1, #11, ...

........................................................................
.............................. CYCLE    4 ..............................
........................................................................

 iter      E             dE          RMSdq      gap      omega  full diag
   1    -32.0722912 -0.320723E+02  0.141E-01    3.67       0.0  T
   2    -32.0722969 -0.572781E-05  0.850E-02    3.67       1.0  T
   3    -32.0722951  0.179944E-05  0.137E-02    3.67       1.4  T
   4    -32.0722971 -0.203169E-05  0.747E-03    3.67       2.6  T
   5    -32.0722979 -0.792810E-06  0.184E-03    3.67      10.7  T
   6    -32.0722980 -0.520412E-07  0.820E-04    3.67      23.9  T
   7    -32.0722980 -0.219958E-08  0.371E-04    3.67      52.9  T
   8    -32.0722980 -0.598405E-09  0.177E-04    3.67     110.9  T
   9    -32.0722980 -0.196117E-09  0.517E-05    3.67     379.5  T
  10    -32.0722980 -0.147935E-10  0.222E-05    3.67     883.1  T
  11    -32.0722980 -0.183320E-11  0.907E-06    3.67    2163.3  T
  12    -32.0722980 -0.248690E-12  0.315E-06    3.67    6226.5  T
     SCC iter.                  ...        0 min,  0.076 sec
     gradient                   ...        0 min,  0.002 sec
 * total energy  :   -31.5546237 Eh     change       -0.1382092E-02 Eh
   gradient norm :     0.0065532 Eh/α   predicted    -0.1207243E-02 ( -12.65%)
   displ. norm   :     0.3003326 α      lambda       -0.7024549E-03
   maximum displ.:     0.1684172 α      in ANC's #1, #2, #7, ...

........................................................................
.............................. CYCLE    5 ..............................
........................................................................

 iter      E             dE          RMSdq      gap      omega  full diag
   1    -32.0739452 -0.320739E+02  0.937E-02    3.66       0.0  T
   2    -32.0739473 -0.210072E-05  0.557E-02    3.66       1.0  T
   3    -32.0739461  0.115402E-05  0.869E-03    3.65       2.3  T
   4    -32.0739474 -0.125240E-05  0.451E-03    3.65       4.4  T
   5    -32.0739477 -0.338521E-06  0.129E-03    3.65      15.2  T
   6    -32.0739477 -0.116645E-07  0.506E-04    3.65      38.7  T
   7    -32.0739477 -0.114106E-08  0.208E-04    3.65      94.2  T
   8    -32.0739477 -0.206057E-09  0.810E-05    3.65     242.0  T
   9    -32.0739477 -0.534470E-10  0.274E-05    3.65     714.8  T
  10    -32.0739477 -0.203926E-11  0.846E-06    3.65    2318.9  T
  11    -32.0739477 -0.113687E-12  0.322E-06    3.65    6082.9  T
     SCC iter.                  ...        0 min,  0.075 sec
     gradient                   ...        0 min,  0.002 sec
 * total energy  :   -31.5551137 Eh     change       -0.4900015E-03 Eh
   gradient norm :     0.0049471 Eh/α   predicted    -0.3829111E-03 ( -21.86%)
   displ. norm   :     0.2478462 α      lambda       -0.3571793E-03
   maximum displ.:     0.1388972 α      in ANC's #1, #2, #3, ...

........................................................................
.............................. CYCLE    6 ..............................
........................................................................

 iter      E             dE          RMSdq      gap      omega  full diag
   1    -32.0753516 -0.320754E+02  0.887E-02    3.66       0.0  T
   2    -32.0753525 -0.863294E-06  0.518E-02    3.66       1.0  T
   3    -32.0753523  0.213561E-06  0.464E-03    3.66       4.2  T
   4    -32.0753526 -0.298061E-06  0.238E-03    3.66       8.2  T
   5    -32.0753527 -0.976748E-07  0.102E-03    3.66      19.2  T
   6    -32.0753527 -0.534847E-08  0.418E-04    3.66      46.9  T
   7    -32.0753527 -0.419718E-09  0.103E-04    3.66     190.0  T
   8    -32.0753527 -0.463771E-10  0.500E-05    3.66     392.6  T
   9    -32.0753527 -0.184102E-10  0.162E-05    3.66    1208.5  T
  10    -32.0753527 -0.104450E-11  0.688E-06    3.66    2849.2  T
  11    -32.0753527 -0.696332E-12  0.277E-06    3.66    7068.0  T
     SCC iter.                  ...        0 min,  0.075 sec
     gradient                   ...        0 min,  0.002 sec
 * total energy  :   -31.5553726 Eh     change       -0.2589070E-03 Eh
   gradient norm :     0.0028632 Eh/α   predicted    -0.1895608E-03 ( -26.78%)
   displ. norm   :     0.2502638 α      lambda       -0.2512524E-03
   maximum displ.:     0.1376369 α      in ANC's #1, #3, #7, ...

........................................................................
.............................. CYCLE    7 ..............................
........................................................................

 iter      E             dE          RMSdq      gap      omega  full diag
   1    -32.0762250 -0.320762E+02  0.978E-02    3.66       0.0  T
   2    -32.0762257 -0.783775E-06  0.571E-02    3.66       1.0  T
   3    -32.0762257  0.838687E-07  0.402E-03    3.66       4.9  T
   4    -32.0762259 -0.213228E-06  0.198E-03    3.66       9.9  T
   5    -32.0762259 -0.518721E-07  0.972E-04    3.66      20.2  T
   6    -32.0762259 -0.663591E-08  0.340E-04    3.66      57.7  T
   7    -32.0762259 -0.153612E-09  0.981E-05    3.66     199.8  T
   8    -32.0762259 -0.676650E-10  0.386E-05    3.66     508.4  T
   9    -32.0762259 -0.105516E-10  0.130E-05    3.66    1509.2  T
  10    -32.0762259 -0.738964E-12  0.626E-06    3.66    3133.7  T
  11    -32.0762259 -0.454747E-12  0.230E-06    3.66    8509.7  T
     SCC iter.                  ...        0 min,  0.075 sec
     gradient                   ...        0 min,  0.002 sec
 * total energy  :   -31.5555603 Eh     change       -0.1876846E-03 Eh
   gradient norm :     0.0034537 Eh/α   predicted    -0.1334954E-03 ( -28.87%)
   displ. norm   :     0.2970788 α      lambda       -0.2336850E-03
   maximum displ.:     0.1719622 α      in ANC's #3, #1, #7, ...

........................................................................
.............................. CYCLE    8 ..............................
........................................................................

 iter      E             dE          RMSdq      gap      omega  full diag
   1    -32.0762363 -0.320762E+02  0.117E-01    3.66       0.0  T
   2    -32.0762371 -0.802692E-06  0.686E-02    3.66       1.0  T
   3    -32.0762372 -0.962928E-07  0.355E-03    3.66       5.5  T
   4    -32.0762373 -0.930031E-07  0.177E-03    3.66      11.1  T
   5    -32.0762373 -0.214181E-07  0.611E-04    3.66      32.1  T
   6    -32.0762373 -0.168232E-08  0.295E-04    3.66      66.5  T
   7    -32.0762373 -0.663839E-09  0.872E-05    3.66     225.0  T
   8    -32.0762373 -0.992628E-10  0.275E-05    3.66     711.9  T
   9    -32.0762373 -0.493117E-11  0.119E-05    3.66    1649.2  T
  10    -32.0762373 -0.923706E-12  0.437E-06    3.66    4486.8  T
  11    -32.0762373 -0.163425E-12  0.181E-06    3.66   10832.8  T
     SCC iter.                  ...        0 min,  0.075 sec
     gradient                   ...        0 min,  0.002 sec
 * total energy  :   -31.5557406 Eh     change       -0.1803851E-03 Eh
   gradient norm :     0.0051956 Eh/α   predicted    -0.1271571E-03 ( -29.51%)
   displ. norm   :     0.3628996 α      lambda       -0.2547780E-03
   maximum displ.:     0.2308537 α      in ANC's #3, #1, #4, ...

........................................................................
.............................. CYCLE    9 ..............................
........................................................................

 iter      E             dE          RMSdq      gap      omega  full diag
   1    -32.0756371 -0.320756E+02  0.140E-01    3.67       0.0  T
   2    -32.0756384 -0.125835E-05  0.817E-02    3.67       1.0  T
   3    -32.0756386 -0.209454E-06  0.442E-03    3.67       4.4  T
   4    -32.0756386 -0.581695E-07  0.197E-03    3.67       9.9  T
   5    -32.0756387 -0.287870E-07  0.711E-04    3.67      27.6  T
   6    -32.0756387 -0.233345E-08  0.339E-04    3.67      57.9  T
   7    -32.0756387 -0.476334E-09  0.822E-05    3.67     238.7  T
   8    -32.0756387 -0.426397E-10  0.292E-05    3.67     670.9  T
   9    -32.0756387 -0.406430E-11  0.124E-05    3.67    1580.9  T
  10    -32.0756387 -0.232347E-11  0.334E-06    3.67    5863.0  T
  11    -32.0756387 -0.127898E-12  0.145E-06    3.67   13513.2  T
     SCC iter.                  ...        0 min,  0.075 sec
     gradient                   ...        0 min,  0.002 sec
 * total energy  :   -31.5559318 Eh     change       -0.1911890E-03 Eh
   gradient norm :     0.0056826 Eh/α   predicted    -0.1441731E-03 ( -24.59%)
   displ. norm   :     0.2845421 α      lambda       -0.1904197E-03
   maximum displ.:     0.1962403 α      in ANC's #3, #1, #4, ...

........................................................................
.............................. CYCLE   10 ..............................
........................................................................

 iter      E             dE          RMSdq      gap      omega  full diag
   1    -32.0756971 -0.320757E+02  0.104E-01    3.68       0.0  T
   2    -32.0756981 -0.947624E-06  0.603E-02    3.68       1.0  T
   3    -32.0756982 -0.839976E-07  0.435E-03    3.68       4.5  T
   4    -32.0756982 -0.519376E-07  0.176E-03    3.68      11.1  T
   5    -32.0756983 -0.500914E-07  0.782E-04    3.68      25.1  T
   6    -32.0756983 -0.476251E-08  0.351E-04    3.68      55.9  T
   7    -32.0756983 -0.473868E-09  0.767E-05    3.68     255.7  T
   8    -32.0756983 -0.192770E-10  0.312E-05    3.68     628.3  T
   9    -32.0756983 -0.129958E-10  0.113E-05    3.68    1740.9  T
  10    -32.0756983 -0.118661E-11  0.436E-06    3.68    4496.8  T
  11    -32.0756983 -0.994760E-13  0.173E-06    3.68   11363.7  T
     SCC iter.                  ...        0 min,  0.076 sec
     gradient                   ...        0 min,  0.002 sec
 * total energy  :   -31.5560714 Eh     change       -0.1395308E-03 Eh
   gradient norm :     0.0036144 Eh/α   predicted    -0.1029201E-03 ( -26.24%)
   displ. norm   :     0.1812959 α      lambda       -0.9833533E-04
   maximum displ.:     0.1377417 α      in ANC's #3, #1, #4, ...

........................................................................
.............................. CYCLE   11 ..............................
........................................................................

 iter      E             dE          RMSdq      gap      omega  full diag
   1    -32.0761139 -0.320761E+02  0.632E-02    3.69       0.0  T
   2    -32.0761143 -0.366359E-06  0.367E-02    3.69       1.0  T
   3    -32.0761143 -0.132907E-08  0.307E-03    3.69       6.4  T
   4    -32.0761144 -0.570450E-07  0.123E-03    3.69      16.0  T
   5    -32.0761144 -0.224996E-07  0.457E-04    3.69      42.9  T
   6    -32.0761144 -0.664379E-09  0.261E-04    3.69      75.2  T
   7    -32.0761144 -0.574879E-09  0.455E-05    3.69     430.6  T
   8    -32.0761144 -0.250253E-10  0.200E-05    3.69     979.2  T
   9    -32.0761144 -0.326850E-11  0.741E-06    3.69    2647.6  T
  10    -32.0761144 -0.241585E-12  0.318E-06    3.69    6162.2  T
     SCC iter.                  ...        0 min,  0.075 sec
     gradient                   ...        0 min,  0.002 sec
 * total energy  :   -31.5561425 Eh     change       -0.7111911E-04 Eh
   gradient norm :     0.0016807 Eh/α   predicted    -0.5078455E-04 ( -28.59%)
   displ. norm   :     0.1712502 α      lambda       -0.4628809E-04
   maximum displ.:     0.1423125 α      in ANC's #3, #1, #10, ...

........................................................................
.............................. CYCLE   12 ..............................
........................................................................

 iter      E             dE          RMSdq      gap      omega  full diag
   1    -32.0765902 -0.320766E+02  0.573E-02    3.70       0.0  T
   2    -32.0765905 -0.201333E-06  0.335E-02    3.69       1.0  T
   3    -32.0765904  0.910872E-07  0.312E-03    3.69       6.3  T
   4    -32.0765905 -0.156052E-06  0.935E-04    3.69      21.0  T
   5    -32.0765905 -0.837716E-08  0.380E-04    3.69      51.6  T
   6    -32.0765905 -0.877108E-09  0.208E-04    3.69      94.4  T
   7    -32.0765905 -0.166466E-09  0.601E-05    3.69     326.4  T
   8    -32.0765905 -0.607088E-10  0.188E-05    3.69    1040.6  T
   9    -32.0765905 -0.980549E-12  0.552E-06    3.69    3551.8  T
  10    -32.0765905 -0.177636E-12  0.243E-06    3.69    8067.2  T
     SCC iter.                  ...        0 min,  0.075 sec
     gradient                   ...        0 min,  0.002 sec
 * total energy  :   -31.5561911 Eh     change       -0.4856980E-04 Eh
   gradient norm :     0.0021528 Eh/α   predicted    -0.2344720E-04 ( -51.72%)
   displ. norm   :     0.0632790 α      lambda       -0.2855234E-04
   maximum displ.:     0.0544494 α      in ANC's #3, #10, #1, ...

........................................................................
.............................. CYCLE   13 ..............................
........................................................................

 iter      E             dE          RMSdq      gap      omega  full diag
   1    -32.0769346 -0.320769E+02  0.200E-02    3.70       0.0  T
   2    -32.0769346 -0.336755E-07  0.118E-02    3.69       1.7  T
   3    -32.0769346  0.300106E-07  0.137E-03    3.69      14.3  T
   4    -32.0769347 -0.399700E-07  0.416E-04    3.69      47.1  T
   5    -32.0769347 -0.180169E-08  0.162E-04    3.69     121.3  T
   6    -32.0769347 -0.206107E-09  0.642E-05    3.69     305.6  T
   7    -32.0769347 -0.329976E-10  0.227E-05    3.69     864.6  T
   8    -32.0769347 -0.128608E-11  0.979E-06    3.69    2003.2  T
   9    -32.0769347 -0.802913E-12  0.294E-06    3.69    6676.9  T
     SCC iter.                  ...        0 min,  0.074 sec
     gradient                   ...        0 min,  0.002 sec
 * total energy  :   -31.5562173 Eh     change       -0.2626027E-04 Eh
   gradient norm :     0.0019599 Eh/α   predicted    -0.1433723E-04 ( -45.40%)
   displ. norm   :     0.1803032 α      lambda       -0.5899258E-04
   maximum displ.:     0.1384293 α      in ANC's #3, #4, #10, ...

........................................................................
.............................. CYCLE   14 ..............................
........................................................................

 iter      E             dE          RMSdq      gap      omega  full diag
   1    -32.0775406 -0.320775E+02  0.560E-02    3.69       0.0  T
   2    -32.0775408 -0.251750E-06  0.329E-02    3.69       1.0  T
   3    -32.0775408  0.541856E-07  0.258E-03    3.69       7.6  T
   4    -32.0775409 -0.937039E-07  0.125E-03    3.69      15.7  T
   5    -32.0775409 -0.297897E-07  0.463E-04    3.69      42.3  T
   6    -32.0775409 -0.108915E-08  0.188E-04    3.69     104.1  T
   7    -32.0775409 -0.879510E-10  0.623E-05    3.69     314.7  T
   8    -32.0775409 -0.331966E-10  0.274E-05    3.69     715.7  T
   9    -32.0775409 -0.559197E-11  0.754E-06    3.69    2602.7  T
  10    -32.0775409 -0.255795E-12  0.315E-06    3.69    6223.1  T
     SCC iter.                  ...        0 min,  0.075 sec
     gradient                   ...        0 min,  0.002 sec
 * total energy  :   -31.5562841 Eh     change       -0.6676173E-04 Eh
   gradient norm :     0.0015036 Eh/α   predicted    -0.2992509E-04 ( -55.18%)
   displ. norm   :     0.1795326 α      lambda       -0.4251642E-04
   maximum displ.:     0.1457845 α      in ANC's #3, #4, #10, ...

........................................................................
.............................. CYCLE   15 ..............................
........................................................................

 iter      E             dE          RMSdq      gap      omega  full diag
   1    -32.0768320 -0.320768E+02  0.537E-02    3.69       0.0  T
   2    -32.0768323 -0.223076E-06  0.317E-02    3.69       1.0  T
   3    -32.0768322  0.640800E-07  0.279E-03    3.69       7.0  T
   4    -32.0768323 -0.124350E-06  0.103E-03    3.69      19.1  T
   5    -32.0768323 -0.108589E-07  0.412E-04    3.69      47.6  T
   6    -32.0768323 -0.468532E-09  0.167E-04    3.69     117.4  T
   7    -32.0768323 -0.554650E-10  0.418E-05    3.69     468.9  T
   8    -32.0768323  0.157030E-11  0.170E-05    3.69    1152.3  T
   9    -32.0768323 -0.517986E-11  0.536E-06    3.69    3660.5  T
  10    -32.0768323 -0.305533E-12  0.190E-06    3.69   10321.1  T
     SCC iter.                  ...        0 min,  0.074 sec
     gradient                   ...        0 min,  0.002 sec
 * total energy  :   -31.5563324 Eh     change       -0.4828030E-04 Eh
   gradient norm :     0.0022685 Eh/α   predicted    -0.2156650E-04 ( -55.33%)
   displ. norm   :     0.0964595 α      lambda       -0.3306132E-04
   maximum displ.:     0.0747646 α      in ANC's #3, #4, #2, ...

........................................................................
.............................. CYCLE   16 ..............................
........................................................................

 iter      E             dE          RMSdq      gap      omega  full diag
   1    -32.0769907 -0.320770E+02  0.279E-02    3.68       0.0  T
   2    -32.0769908 -0.441204E-07  0.164E-02    3.68       1.2  T
   3    -32.0769908  0.296840E-07  0.172E-03    3.68      11.4  T
   4    -32.0769908 -0.469711E-07  0.516E-04    3.68      38.0  T
   5    -32.0769908 -0.862933E-09  0.242E-04    3.68      81.2  T
   6    -32.0769908 -0.301704E-09  0.103E-04    3.68     190.2  T
   7    -32.0769908 -0.337437E-10  0.264E-05    3.68     743.1  T
   8    -32.0769908 -0.714806E-11  0.122E-05    3.68    1605.5  T
   9    -32.0769908 -0.164846E-11  0.335E-06    3.68    5862.9  T
  10    -32.0769908 -0.497380E-13  0.131E-06    3.68   14952.5  T
     SCC iter.                  ...        0 min,  0.074 sec
     gradient                   ...        0 min,  0.002 sec
 * total energy  :   -31.5563598 Eh     change       -0.2747377E-04 Eh
   gradient norm :     0.0017087 Eh/α   predicted    -0.1668597E-04 ( -39.27%)
   displ. norm   :     0.1763100 α      lambda       -0.3598219E-04
   maximum displ.:     0.1362481 α      in ANC's #3, #4, #2, ...

........................................................................
.............................. CYCLE   17 ..............................
........................................................................

 iter      E             dE          RMSdq      gap      omega  full diag
   1    -32.0770734 -0.320771E+02  0.524E-02    3.68       0.0  T
   2    -32.0770736 -0.162774E-06  0.308E-02    3.68       1.0  T
   3    -32.0770734  0.145079E-06  0.346E-03    3.68       5.7  T
   4    -32.0770736 -0.212448E-06  0.964E-04    3.68      20.3  T
   5    -32.0770736 -0.325653E-08  0.491E-04    3.68      40.0  T
   6    -32.0770736 -0.629377E-09  0.158E-04    3.68     123.8  T
   7    -32.0770736 -0.938556E-10  0.534E-05    3.68     367.5  T
   8    -32.0770736 -0.445226E-10  0.204E-05    3.68     959.1  T
   9    -32.0770736 -0.360956E-11  0.769E-06    3.68    2549.7  T
  10    -32.0770736 -0.994760E-13  0.250E-06    3.68    7835.2  T
     SCC iter.                  ...        0 min,  0.074 sec
     gradient                   ...        0 min,  0.002 sec
 * total energy  :   -31.5564030 Eh     change       -0.4320948E-04 Eh
   gradient norm :     0.0014555 Eh/α   predicted    -0.1824018E-04 ( -57.79%)
   displ. norm   :     0.1612487 α      lambda       -0.2945302E-04
   maximum displ.:     0.1289361 α      in ANC's #3, #4, #2, ...

........................................................................
.............................. CYCLE   18 ..............................
........................................................................

 iter      E             dE          RMSdq      gap      omega  full diag
   1    -32.0764309 -0.320764E+02  0.532E-02    3.68       0.0  T
   2    -32.0764310 -0.156952E-06  0.312E-02    3.68       1.0  T
   3    -32.0764310  0.641353E-07  0.287E-03    3.68       6.8  T
   4    -32.0764311 -0.121435E-06  0.888E-04    3.68      22.1  T
   5    -32.0764311 -0.335694E-08  0.452E-04    3.68      43.3  T
   6    -32.0764311 -0.120637E-08  0.152E-04    3.68     128.8  T
   7    -32.0764311 -0.335092E-10  0.478E-05    3.68     410.5  T
   8    -32.0764311 -0.470024E-10  0.157E-05    3.68    1248.7  T
   9    -32.0764311 -0.193268E-11  0.662E-06    3.68    2961.8  T
  10    -32.0764311 -0.149214E-12  0.219E-06    3.68    8972.2  T
     SCC iter.                  ...        0 min,  0.074 sec
     gradient                   ...        0 min,  0.002 sec
 * total energy  :   -31.5564402 Eh     change       -0.3715918E-04 Eh
   gradient norm :     0.0016715 Eh/α   predicted    -0.1489717E-04 ( -59.91%)
   displ. norm   :     0.3572689 α      lambda       -0.5795207E-04
   maximum displ.:     0.2838767 α      in ANC's #3, #4, #2, ...

........................................................................
.............................. CYCLE   19 ..............................
........................................................................

 iter      E             dE          RMSdq      gap      omega  full diag
   1    -32.0756369 -0.320756E+02  0.117E-01    3.68       0.0  T
   2    -32.0756379 -0.919533E-06  0.685E-02    3.67       1.0  T
   3    -32.0756378  0.865009E-07  0.567E-03    3.67       3.5  T
   4    -32.0756381 -0.343066E-06  0.210E-03    3.67       9.3  T
   5    -32.0756381 -0.290220E-07  0.917E-04    3.67      21.4  T
   6    -32.0756381 -0.545249E-08  0.397E-04    3.67      49.4  T
   7    -32.0756381 -0.340798E-09  0.929E-05    3.67     211.2  T
   8    -32.0756381 -0.102837E-09  0.338E-05    3.67     579.9  T
   9    -32.0756381 -0.775202E-11  0.150E-05    3.67    1303.6  T
  10    -32.0756381 -0.130029E-11  0.623E-06    3.67    3148.4  T
  11    -32.0756381 -0.525802E-12  0.164E-06    3.67   11934.1  T
     SCC iter.                  ...        0 min,  0.075 sec
     gradient                   ...        0 min,  0.002 sec
 * total energy  :   -31.5565011 Eh     change       -0.6088332E-04 Eh
   gradient norm :     0.0029038 Eh/α   predicted    -0.3062285E-04 ( -49.70%)
   displ. norm   :     0.3197175 α      lambda       -0.6732289E-04
   maximum displ.:     0.2566989 α      in ANC's #3, #4, #2, ...

........................................................................
.............................. CYCLE   20 ..............................
........................................................................

 iter      E             dE          RMSdq      gap      omega  full diag
   1    -32.0748115 -0.320748E+02  0.110E-01    3.67       0.0  T
   2    -32.0748122 -0.689006E-06  0.640E-02    3.66       1.0  T
   3    -32.0748121  0.116348E-06  0.470E-03    3.66       4.2  T
   4    -32.0748124 -0.309411E-06  0.191E-03    3.66      10.3  T
   5    -32.0748125 -0.439490E-07  0.729E-04    3.66      26.9  T
   6    -32.0748125 -0.331643E-08  0.341E-04    3.66      57.4  T
   7    -32.0748125 -0.220879E-09  0.584E-05    3.66     336.0  T
   8    -32.0748125 -0.364651E-10  0.228E-05    3.66     861.9  T
   9    -32.0748125 -0.234479E-11  0.904E-06    3.66    2169.9  T
  10    -32.0748125 -0.589750E-12  0.375E-06    3.66    5230.6  T
     SCC iter.                  ...        0 min,  0.074 sec
     gradient                   ...        0 min,  0.002 sec
 * total energy  :   -31.5565470 Eh     change       -0.4591676E-04 Eh
   gradient norm :     0.0038654 Eh/α   predicted    -0.3710749E-04 ( -19.19%)
   displ. norm   :     0.2674775 α      lambda       -0.6057959E-04
   maximum displ.:     0.2142037 α      in ANC's #3, #4, #2, ...
 * RMSD in coord.:     0.7070258 α      energy gain  -0.1406972E-01 Eh

generating ANC from model Hessian ...
Using Lindh-Hessian (1995)
 Shifting diagonal of input Hessian by   9.122987322573274E-003
 Lowest  eigenvalues of input Hessian
    0.000000    0.000000    0.000000    0.000000    0.000000    0.000000
    0.010000    0.010065    0.010645    0.011202    0.011595    0.012517
    0.015087    0.016495    0.018380    0.018578    0.022939    0.024084
 Highest eigenvalues
    1.357627    1.549015    1.567633    1.875980    1.981414    1.997347
 

........................................................................
.............................. CYCLE   21 ..............................
........................................................................

 iter      E             dE          RMSdq      gap      omega  full diag
   1    -32.0752284 -0.320752E+02  0.928E-02    3.67       0.0  T
   2    -32.0752290 -0.570942E-06  0.542E-02    3.66       1.0  T
   3    -32.0752290 -0.991938E-08  0.391E-03    3.66       5.0  T
   4    -32.0752291 -0.116473E-06  0.164E-03    3.66      11.9  T
   5    -32.0752291 -0.344561E-07  0.688E-04    3.66      28.5  T
   6    -32.0752291 -0.518335E-08  0.321E-04    3.66      61.1  T
   7    -32.0752291 -0.286931E-09  0.726E-05    3.66     270.1  T
   8    -32.0752291 -0.697256E-10  0.293E-05    3.66     668.9  T
   9    -32.0752291 -0.540723E-11  0.115E-05    3.66    1708.1  T
  10    -32.0752291 -0.447642E-12  0.340E-06    3.66    5760.3  T
  11    -32.0752291  0.497380E-13  0.116E-06    3.66   16875.9  T
     SCC iter.                  ...        0 min,  0.075 sec
     gradient                   ...        0 min,  0.002 sec
 * total energy  :   -31.5565943 Eh     change       -0.4730305E-04 Eh
   gradient norm :     0.0037444 Eh/α   predicted     0.0000000E+00 (-100.00%)
   displ. norm   :     0.0412101 α      lambda       -0.5617656E-04
   maximum displ.:     0.0196906 α      in ANC's #1, #3, #12, ...

........................................................................
.............................. CYCLE   22 ..............................
........................................................................

 iter      E             dE          RMSdq      gap      omega  full diag
   1    -32.0770791 -0.320771E+02  0.239E-02    3.67       0.0  T
   2    -32.0770792 -0.847963E-07  0.140E-02    3.67       1.4  T
   3    -32.0770792  0.798181E-07  0.226E-03    3.67       8.7  T
   4    -32.0770793 -0.985796E-07  0.616E-04    3.67      31.9  T
   5    -32.0770793 -0.454263E-08  0.260E-04    3.67      75.5  T
   6    -32.0770793 -0.771330E-09  0.973E-05    3.67     201.6  T
   7    -32.0770793 -0.316902E-11  0.388E-05    3.67     505.1  T
   8    -32.0770793 -0.151843E-10  0.971E-06    3.67    2018.9  T
   9    -32.0770793 -0.319744E-12  0.365E-06    3.67    5374.5  T
     SCC iter.                  ...        0 min,  0.074 sec
     gradient                   ...        0 min,  0.002 sec
 * total energy  :   -31.5566333 Eh     change       -0.3898060E-04 Eh
   gradient norm :     0.0013799 Eh/α   predicted    -0.2814395E-04 ( -27.80%)
   displ. norm   :     0.0890788 α      lambda       -0.2861727E-04
   maximum displ.:     0.0523588 α      in ANC's #1, #3, #12, ...

........................................................................
.............................. CYCLE   23 ..............................
........................................................................

 iter      E             dE          RMSdq      gap      omega  full diag
   1    -32.0784796 -0.320785E+02  0.389E-02    3.68       0.0  T
   2    -32.0784797 -0.121688E-06  0.228E-02    3.68       1.0  T
   3    -32.0784797  0.410032E-07  0.213E-03    3.68       9.2  T
   4    -32.0784797 -0.738790E-07  0.612E-04    3.68      32.0  T
   5    -32.0784797 -0.197538E-08  0.327E-04    3.68      60.1  T
   6    -32.0784797 -0.907519E-09  0.142E-04    3.68     137.9  T
   7    -32.0784797 -0.352074E-10  0.502E-05    3.68     390.9  T
   8    -32.0784797 -0.362306E-10  0.149E-05    3.68    1320.3  T
   9    -32.0784797 -0.115818E-11  0.528E-06    3.68    3711.3  T
  10    -32.0784797 -0.284217E-13  0.287E-06    3.68    6831.6  T
     SCC iter.                  ...        0 min,  0.075 sec
     gradient                   ...        0 min,  0.003 sec
 * total energy  :   -31.5566563 Eh     change       -0.2297831E-04 Eh
   gradient norm :     0.0015644 Eh/α   predicted    -0.1436293E-04 ( -37.49%)
   displ. norm   :     0.0545699 α      lambda       -0.1128868E-04
   maximum displ.:     0.0398640 α      in ANC's #1, #3, #9, ...

........................................................................
.............................. CYCLE   24 ..............................
........................................................................

 iter      E             dE          RMSdq      gap      omega  full diag
   1    -32.0778758 -0.320779E+02  0.205E-02    3.68       0.0  T
   2    -32.0778758 -0.267517E-07  0.119E-02    3.68       1.7  T
   3    -32.0778758  0.159857E-07  0.120E-03    3.68      16.3  T
   4    -32.0778758 -0.228920E-07  0.463E-04    3.68      42.4  T
   5    -32.0778758 -0.273668E-08  0.143E-04    3.68     137.3  T
   6    -32.0778758 -0.766889E-10  0.709E-05    3.68     276.5  T
   7    -32.0778758 -0.242935E-10  0.180E-05    3.68    1090.9  T
   8    -32.0778758 -0.346745E-11  0.669E-06    3.68    2929.6  T
   9    -32.0778758 -0.405009E-12  0.280E-06    3.68    7006.7  T
     SCC iter.                  ...        0 min,  0.074 sec
     gradient                   ...        0 min,  0.002 sec
 * total energy  :   -31.5566709 Eh     change       -0.1461390E-04 Eh
   gradient norm :     0.0010294 Eh/α   predicted    -0.5654366E-05 ( -61.31%)
   displ. norm   :     0.0873382 α      lambda       -0.1632433E-04
   maximum displ.:     0.0639310 α      in ANC's #1, #3, #4, ...

........................................................................
.............................. CYCLE   25 ..............................
........................................................................

 iter      E             dE          RMSdq      gap      omega  full diag
   1    -32.0771094 -0.320771E+02  0.326E-02    3.67       0.0  T
   2    -32.0771094 -0.713400E-07  0.191E-02    3.67       1.0  T
   3    -32.0771093  0.132100E-06  0.269E-03    3.67       7.3  T
   4    -32.0771095 -0.165888E-06  0.542E-04    3.67      36.2  T
   5    -32.0771095 -0.122471E-08  0.277E-04    3.67      70.7  T
   6    -32.0771095 -0.213070E-09  0.980E-05    3.67     200.2  T
   7    -32.0771095 -0.565947E-10  0.287E-05    3.67     684.3  T
   8    -32.0771095 -0.118021E-10  0.948E-06    3.67    2068.5  T
   9    -32.0771095 -0.383693E-12  0.395E-06    3.67    4967.8  T
     SCC iter.                  ...        0 min,  0.074 sec
     gradient                   ...        0 min,  0.002 sec
 * total energy  :   -31.5566902 Eh     change       -0.1933123E-04 Eh
   gradient norm :     0.0007632 Eh/α   predicted    -0.8190321E-05 ( -57.63%)
   displ. norm   :     0.1033854 α      lambda       -0.1397045E-04
   maximum displ.:     0.0762655 α      in ANC's #1, #3, #4, ...

........................................................................
.............................. CYCLE   26 ..............................
........................................................................

 iter      E             dE          RMSdq      gap      omega  full diag
   1    -32.0767611 -0.320768E+02  0.379E-02    3.67       0.0  T
   2    -32.0767612 -0.130226E-06  0.219E-02    3.67       1.0  T
   3    -32.0767612  0.415052E-07  0.228E-03    3.67       8.6  T
   4    -32.0767612 -0.483215E-07  0.120E-03    3.67      16.4  T
   5    -32.0767613 -0.279479E-07  0.288E-04    3.67      68.1  T
   6    -32.0767613 -0.370349E-09  0.123E-04    3.67     159.9  T
   7    -32.0767613 -0.273488E-10  0.406E-05    3.67     483.2  T
   8    -32.0767613 -0.744649E-11  0.144E-05    3.67    1365.0  T
   9    -32.0767613 -0.186873E-11  0.485E-06    3.67    4039.7  T
  10    -32.0767613 -0.135003E-12  0.200E-06    3.67    9823.7  T
     SCC iter.                  ...        0 min,  0.074 sec
     gradient                   ...        0 min,  0.002 sec
 * total energy  :   -31.5567066 Eh     change       -0.1641515E-04 Eh
   gradient norm :     0.0010771 Eh/α   predicted    -0.7019530E-05 ( -57.24%)
   displ. norm   :     0.0960092 α      lambda       -0.1095133E-04
   maximum displ.:     0.0718892 α      in ANC's #1, #3, #4, ...

........................................................................
.............................. CYCLE   27 ..............................
........................................................................

 iter      E             dE          RMSdq      gap      omega  full diag
   1    -32.0769026 -0.320769E+02  0.345E-02    3.67       0.0  T
   2    -32.0769027 -0.862578E-07  0.201E-02    3.66       1.0  T
   3    -32.0769026  0.342527E-07  0.196E-03    3.66      10.0  T
   4    -32.0769027 -0.546241E-07  0.789E-04    3.66      24.9  T
   5    -32.0769027 -0.779113E-08  0.235E-04    3.66      83.3  T
   6    -32.0769027 -0.249528E-09  0.119E-04    3.66     164.7  T
   7    -32.0769027 -0.210107E-10  0.335E-05    3.66     584.9  T
   8    -32.0769027 -0.115890E-10  0.124E-05    3.66    1581.0  T
   9    -32.0769027 -0.216716E-11  0.412E-06    3.66    4764.9  T
  10    -32.0769027 -0.710543E-13  0.204E-06    3.66    9624.4  T
     SCC iter.                  ...        0 min,  0.074 sec
     gradient                   ...        0 min,  0.002 sec
 * total energy  :   -31.5567203 Eh     change       -0.1370470E-04 Eh
   gradient norm :     0.0009015 Eh/α   predicted    -0.5505185E-05 ( -59.83%)
   displ. norm   :     0.0836272 α      lambda       -0.9155438E-05
   maximum displ.:     0.0663482 α      in ANC's #1, #3, #4, ...

........................................................................
.............................. CYCLE   28 ..............................
........................................................................

 iter      E             dE          RMSdq      gap      omega  full diag
   1    -32.0772943 -0.320773E+02  0.305E-02    3.67       0.0  T
   2    -32.0772944 -0.616840E-07  0.177E-02    3.67       1.1  T
   3    -32.0772944  0.250641E-08  0.135E-03    3.67      14.5  T
   4    -32.0772944 -0.120258E-07  0.739E-04    3.67      26.5  T
   5    -32.0772944 -0.954824E-08  0.199E-04    3.67      98.4  T
   6    -32.0772944 -0.257387E-09  0.101E-04    3.67     194.4  T
   7    -32.0772944 -0.264606E-10  0.275E-05    3.67     712.6  T
   8    -32.0772944 -0.486011E-11  0.103E-05    3.67    1903.3  T
   9    -32.0772944 -0.117950E-11  0.270E-06    3.67    7253.7  T
  10    -32.0772944 -0.113687E-12  0.120E-06    3.67   16280.5  T
     SCC iter.                  ...        0 min,  0.074 sec
     gradient                   ...        0 min,  0.002 sec
 * total energy  :   -31.5567321 Eh     change       -0.1175613E-04 Eh
   gradient norm :     0.0005122 Eh/α   predicted    -0.4592279E-05 ( -60.94%)
   displ. norm   :     0.0696772 α      lambda       -0.7652931E-05
   maximum displ.:     0.0593274 α      in ANC's #1, #3, #5, ...

........................................................................
.............................. CYCLE   29 ..............................
........................................................................

 iter      E             dE          RMSdq      gap      omega  full diag
   1    -32.0776769 -0.320777E+02  0.258E-02    3.67       0.0  T
   2    -32.0776769 -0.605306E-07  0.150E-02    3.67       1.3  T
   3    -32.0776769  0.541185E-09  0.126E-03    3.67      15.6  T
   4    -32.0776770 -0.683062E-08  0.673E-04    3.67      29.1  T
   5    -32.0776770 -0.854562E-08  0.160E-04    3.67     122.6  T
   6    -32.0776770 -0.640625E-10  0.847E-05    3.67     231.6  T
   7    -32.0776770 -0.412825E-10  0.295E-05    3.67     665.8  T
   8    -32.0776770 -0.438405E-11  0.890E-06    3.67    2203.2  T
   9    -32.0776770 -0.120792E-11  0.300E-06    3.67    6537.8  T
     SCC iter.                  ...        0 min,  0.074 sec
     gradient                   ...        0 min,  0.002 sec
 * total energy  :   -31.5567423 Eh     change       -0.1019932E-04 Eh
   gradient norm :     0.0003365 Eh/α   predicted    -0.3835792E-05 ( -62.39%)
   displ. norm   :     0.0599521 α      lambda       -0.6835891E-05
   maximum displ.:     0.0529979 α      in ANC's #1, #3, #5, ...

........................................................................
.............................. CYCLE   30 ..............................
........................................................................

 iter      E             dE          RMSdq      gap      omega  full diag
   1    -32.0778125 -0.320778E+02  0.221E-02    3.67       0.0  T
   2    -32.0778125 -0.267408E-07  0.129E-02    3.67       1.5  T
   3    -32.0778125  0.413586E-09  0.895E-04    3.67      21.9  T
   4    -32.0778125 -0.810074E-08  0.394E-04    3.67      49.8  T
   5    -32.0778125 -0.142072E-08  0.153E-04    3.67     127.8  T
   6    -32.0778125 -0.163233E-09  0.741E-05    3.67     264.7  T
   7    -32.0778125 -0.101821E-10  0.168E-05    3.67    1168.5  T
   8    -32.0778125 -0.490274E-11  0.650E-06    3.67    3015.8  T
   9    -32.0778125 -0.362377E-12  0.215E-06    3.67    9135.0  T
     SCC iter.                  ...        0 min,  0.074 sec
     gradient                   ...        0 min,  0.002 sec
 * total energy  :   -31.5567520 Eh     change       -0.9708654E-05 Eh
   gradient norm :     0.0004172 Eh/α   predicted    -0.3424386E-05 ( -64.73%)
   displ. norm   :     0.0574212 α      lambda       -0.7064875E-05
   maximum displ.:     0.0502983 α      in ANC's #1, #9, #5, ...

........................................................................
.............................. CYCLE   31 ..............................
........................................................................

 iter      E             dE          RMSdq      gap      omega  full diag
   1    -32.0778406 -0.320778E+02  0.203E-02    3.67       0.0  T
   2    -32.0778406 -0.224590E-07  0.119E-02    3.67       1.7  T
   3    -32.0778406  0.824708E-08  0.948E-04    3.67      20.7  T
   4    -32.0778406 -0.145018E-07  0.414E-04    3.67      47.4  T
   5    -32.0778406 -0.236879E-08  0.141E-04    3.67     138.7  T
   6    -32.0778406 -0.448637E-10  0.625E-05    3.67     313.7  T
   7    -32.0778406 -0.116529E-10  0.184E-05    3.67    1067.6  T
   8    -32.0778406 -0.678568E-11  0.481E-06    3.67    4078.2  T
   9    -32.0778406 -0.206057E-12  0.178E-06    3.67   10989.2  T
     SCC iter.                  ...        0 min,  0.074 sec
     gradient                   ...        0 min,  0.002 sec
 * total energy  :   -31.5567620 Eh     change       -0.1003123E-04 Eh
   gradient norm :     0.0004200 Eh/α   predicted    -0.3538840E-05 ( -64.72%)
   displ. norm   :     0.0614548 α      lambda       -0.7410254E-05
   maximum displ.:     0.0523198 α      in ANC's #1, #5, #9, ...

........................................................................
.............................. CYCLE   32 ..............................
........................................................................

 iter      E             dE          RMSdq      gap      omega  full diag
   1    -32.0777206 -0.320777E+02  0.209E-02    3.67       0.0  T
   2    -32.0777206 -0.225926E-07  0.122E-02    3.67       1.6  T
   3    -32.0777206  0.332782E-08  0.893E-04    3.67      22.0  T
   4    -32.0777206 -0.103968E-07  0.378E-04    3.67      51.8  T
   5    -32.0777206 -0.127527E-08  0.146E-04    3.67     134.4  T
   6    -32.0777206 -0.731148E-10  0.635E-05    3.67     308.9  T
   7    -32.0777206 -0.623146E-11  0.163E-05    3.67    1202.6  T
   8    -32.0777206 -0.565592E-11  0.591E-06    3.67    3320.9  T
   9    -32.0777206 -0.298428E-12  0.214E-06    3.67    9152.3  T
     SCC iter.                  ...        0 min,  0.074 sec
     gradient                   ...        0 min,  0.002 sec
 * total energy  :   -31.5567723 Eh     change       -0.1029388E-04 Eh
   gradient norm :     0.0003230 Eh/α   predicted    -0.3711894E-05 ( -63.94%)
   displ. norm   :     0.0597691 α      lambda       -0.6524202E-05
   maximum displ.:     0.0509246 α      in ANC's #1, #5, #9, ...

........................................................................
.............................. CYCLE   33 ..............................
........................................................................

 iter      E             dE          RMSdq      gap      omega  full diag
   1    -32.0776145 -0.320776E+02  0.199E-02    3.66       0.0  T
   2    -32.0776145 -0.225665E-07  0.116E-02    3.66       1.7  T
   3    -32.0776145  0.550318E-08  0.907E-04    3.66      21.6  T
   4    -32.0776145 -0.112478E-07  0.417E-04    3.66      47.0  T
   5    -32.0776145 -0.241796E-08  0.137E-04    3.66     143.1  T
   6    -32.0776145 -0.353992E-10  0.593E-05    3.66     330.9  T
   7    -32.0776145 -0.971312E-11  0.171E-05    3.66    1145.6  T
   8    -32.0776145 -0.569145E-11  0.522E-06    3.66    3757.6  T
   9    -32.0776145 -0.255795E-12  0.194E-06    3.66   10122.7  T
     SCC iter.                  ...        0 min,  0.074 sec
     gradient                   ...        0 min,  0.002 sec
 * total energy  :   -31.5567814 Eh     change       -0.9056083E-05 Eh
   gradient norm :     0.0002124 Eh/α   predicted    -0.3269608E-05 ( -63.90%)
   displ. norm   :     0.0506310 α      lambda       -0.5109106E-05
   maximum displ.:     0.0439198 α      in ANC's #1, #5, #3, ...

........................................................................
.............................. CYCLE   34 ..............................
........................................................................

 iter      E             dE          RMSdq      gap      omega  full diag
   1    -32.0775433 -0.320775E+02  0.167E-02    3.66       0.0  T
   2    -32.0775433 -0.160246E-07  0.975E-03    3.66       2.0  T
   3    -32.0775433  0.194601E-08  0.729E-04    3.66      26.9  T
   4    -32.0775433 -0.607561E-08  0.329E-04    3.66      59.7  T
   5    -32.0775433 -0.129035E-08  0.114E-04    3.66     172.4  T
   6    -32.0775433 -0.513154E-10  0.525E-05    3.66     373.6  T
   7    -32.0775433 -0.614619E-11  0.100E-05    3.66    1952.4  T
   8    -32.0775433 -0.128608E-11  0.407E-06    3.66    4817.4  T
   9    -32.0775433 -0.923706E-13  0.182E-06    3.66   10786.4  T
     SCC iter.                  ...        0 min,  0.074 sec
     gradient                   ...        0 min,  0.002 sec
 * total energy  :   -31.5567886 Eh     change       -0.7223460E-05 Eh
   gradient norm :     0.0002140 Eh/α   predicted    -0.2558589E-05 ( -64.58%)
   displ. norm   :     0.0423623 α      lambda       -0.4274458E-05
   maximum displ.:     0.0375122 α      in ANC's #1, #5, #3, ...

........................................................................
.............................. CYCLE   35 ..............................
........................................................................

 iter      E             dE          RMSdq      gap      omega  full diag
   1    -32.0775252 -0.320775E+02  0.139E-02    3.66       0.0  T
   2    -32.0775252 -0.118600E-07  0.809E-03    3.66       2.4  T
   3    -32.0775252 -0.136012E-09  0.562E-04    3.66      34.9  T
   4    -32.0775252 -0.254091E-08  0.275E-04    3.66      71.2  T
   5    -32.0775252 -0.102874E-08  0.900E-05    3.66     217.9  T
   6    -32.0775252 -0.283151E-10  0.409E-05    3.66     479.8  T
   7    -32.0775252 -0.524381E-11  0.736E-06    3.66    2664.7  T
   8    -32.0775252 -0.568434E-12  0.298E-06    3.66    6587.9  T
     SCC iter.                  ...        0 min,  0.074 sec
     gradient                   ...        0 min,  0.002 sec
 * total energy  :   -31.5567948 Eh     change       -0.6161006E-05 Eh
   gradient norm :     0.0002437 Eh/α   predicted    -0.2139828E-05 ( -65.27%)
   displ. norm   :     0.0397814 α      lambda       -0.4187974E-05
   maximum displ.:     0.0354712 α      in ANC's #1, #3, #5, ...

........................................................................
.............................. CYCLE   36 ..............................
........................................................................

 iter      E             dE          RMSdq      gap      omega  full diag
   1    -32.0775369 -0.320775E+02  0.128E-02    3.66       0.0  T
   2    -32.0775369 -0.108937E-07  0.749E-03    3.66       2.6  T
   3    -32.0775369  0.895469E-09  0.589E-04    3.66      33.3  T
   4    -32.0775369 -0.319460E-08  0.259E-04    3.66      75.9  T
   5    -32.0775369 -0.843372E-09  0.935E-05    3.66     209.7  T
   6    -32.0775369 -0.726885E-10  0.474E-05    3.66     414.2  T
   7    -32.0775369 -0.687805E-11  0.961E-06    3.66    2041.6  T
   8    -32.0775369 -0.130740E-11  0.374E-06    3.66    5247.5  T
     SCC iter.                  ...        0 min,  0.074 sec
     gradient                   ...        0 min,  0.002 sec
 * total energy  :   -31.5568008 Eh     change       -0.6069197E-05 Eh
   gradient norm :     0.0002575 Eh/α   predicted    -0.2096418E-05 ( -65.46%)
   displ. norm   :     0.0432449 α      lambda       -0.4670873E-05
   maximum displ.:     0.0384317 α      in ANC's #1, #3, #5, ...

........................................................................
.............................. CYCLE   37 ..............................
........................................................................

 iter      E             dE          RMSdq      gap      omega  full diag
   1    -32.0775629 -0.320776E+02  0.138E-02    3.66       0.0  T
   2    -32.0775629 -0.134607E-07  0.804E-03    3.66       2.4  T
   3    -32.0775629 -0.222975E-09  0.601E-04    3.66      32.7  T
   4    -32.0775629 -0.245967E-08  0.280E-04    3.66      70.1  T
   5    -32.0775629 -0.103904E-08  0.997E-05    3.66     196.7  T
   6    -32.0775629 -0.719851E-10  0.486E-05    3.66     403.7  T
   7    -32.0775629 -0.111129E-10  0.116E-05    3.66    1688.7  T
   8    -32.0775629 -0.165556E-11  0.426E-06    3.66    4601.6  T
   9    -32.0775629 -0.135003E-12  0.166E-06    3.66   11819.9  T
     SCC iter.                  ...        0 min,  0.074 sec
     gradient                   ...        0 min,  0.002 sec
 * total energy  :   -31.5568076 Eh     change       -0.6739083E-05 Eh
   gradient norm :     0.0002276 Eh/α   predicted    -0.2338687E-05 ( -65.30%)
   displ. norm   :     0.0495102 α      lambda       -0.5278224E-05
   maximum displ.:     0.0439276 α      in ANC's #1, #3, #9, ...

........................................................................
.............................. CYCLE   38 ..............................
........................................................................

 iter      E             dE          RMSdq      gap      omega  full diag
   1    -32.0775935 -0.320776E+02  0.159E-02    3.66       0.0  T
   2    -32.0775935 -0.147566E-07  0.929E-03    3.66       2.1  T
   3    -32.0775935 -0.598270E-09  0.637E-04    3.66      30.8  T
   4    -32.0775935 -0.305460E-08  0.282E-04    3.66      69.6  T
   5    -32.0775935 -0.771692E-09  0.112E-04    3.66     174.5  T
   6    -32.0775935 -0.836238E-10  0.522E-05    3.66     375.5  T
   7    -32.0775935 -0.866862E-11  0.107E-05    3.66    1833.9  T
   8    -32.0775935 -0.151346E-11  0.408E-06    3.66    4809.9  T
   9    -32.0775935 -0.426326E-13  0.187E-06    3.66   10460.1  T
     SCC iter.                  ...        0 min,  0.085 sec
     gradient                   ...        0 min,  0.002 sec
 * total energy  :   -31.5568151 Eh     change       -0.7535732E-05 Eh
   gradient norm :     0.0002147 Eh/α   predicted    -0.2643162E-05 ( -64.92%)
   displ. norm   :     0.0549529 α      lambda       -0.5588961E-05
   maximum displ.:     0.0489827 α      in ANC's #1, #3, #10, ...

........................................................................
.............................. CYCLE   39 ..............................
........................................................................

 iter      E             dE          RMSdq      gap      omega  full diag
   1    -32.0776081 -0.320776E+02  0.179E-02    3.66       0.0  T
   2    -32.0776081 -0.212902E-07  0.105E-02    3.66       1.9  T
   3    -32.0776081 -0.590177E-09  0.762E-04    3.66      25.7  T
   4    -32.0776081 -0.425405E-08  0.339E-04    3.66      57.9  T
   5    -32.0776081 -0.119638E-08  0.136E-04    3.66     144.6  T
   6    -32.0776081 -0.158735E-09  0.620E-05    3.66     316.3  T
   7    -32.0776081 -0.139693E-10  0.151E-05    3.66    1295.2  T
   8    -32.0776081 -0.278533E-11  0.577E-06    3.66    3400.1  T
   9    -32.0776081 -0.923706E-13  0.251E-06    3.66    7827.1  T
     SCC iter.                  ...        0 min,  0.074 sec
     gradient                   ...        0 min,  0.002 sec
 * total energy  :   -31.5568230 Eh     change       -0.7893875E-05 Eh
   gradient norm :     0.0001917 Eh/α   predicted    -0.2799272E-05 ( -64.54%)
   displ. norm   :     0.0539353 α      lambda       -0.5147186E-05
   maximum displ.:     0.0486295 α      in ANC's #1, #3, #10, ...

........................................................................
.............................. CYCLE   40 ..............................
........................................................................

 iter      E             dE          RMSdq      gap      omega  full diag
   1    -32.0776233 -0.320776E+02  0.181E-02    3.66       0.0  T
   2    -32.0776233 -0.146999E-07  0.106E-02    3.66       1.8  T
   3    -32.0776233 -0.127805E-08  0.621E-04    3.66      31.6  T
   4    -32.0776233 -0.358447E-08  0.288E-04    3.66      68.2  T
   5    -32.0776233 -0.628553E-09  0.119E-04    3.66     164.7  T
   6    -32.0776233 -0.561258E-10  0.487E-05    3.66     403.0  T
   7    -32.0776233 -0.810729E-11  0.121E-05    3.66    1625.2  T
   8    -32.0776233 -0.221689E-11  0.437E-06    3.66    4492.7  T
   9    -32.0776233 -0.220268E-12  0.167E-06    3.66   11729.7  T
     SCC iter.                  ...        0 min,  0.075 sec
     gradient                   ...        0 min,  0.002 sec
 * total energy  :   -31.5568303 Eh     change       -0.7297027E-05 Eh
   gradient norm :     0.0001897 Eh/α   predicted    -0.2578099E-05 ( -64.67%)
   displ. norm   :     0.0486121 α      lambda       -0.4407663E-05
   maximum displ.:     0.0445823 α      in ANC's #1, #3, #10, ...

........................................................................
.............................. CYCLE   41 ..............................
........................................................................

 iter      E             dE          RMSdq      gap      omega  full diag
   1    -32.0776417 -0.320776E+02  0.168E-02    3.66       0.0  T
   2    -32.0776418 -0.147746E-07  0.985E-03    3.66       2.0  T
   3    -32.0776418 -0.167852E-08  0.572E-04    3.66      34.3  T
   4    -32.0776418 -0.249205E-08  0.286E-04    3.66      68.6  T
   5    -32.0776418 -0.799375E-09  0.105E-04    3.66     186.5  T
   6    -32.0776418 -0.354277E-10  0.428E-05    3.66     458.1  T
   7    -32.0776418 -0.519407E-11  0.965E-06    3.66    2033.0  T
   8    -32.0776418 -0.838440E-12  0.395E-06    3.66    4970.6  T
     SCC iter.                  ...        0 min,  0.074 sec
     gradient                   ...        0 min,  0.002 sec
 * total energy  :   -31.5568366 Eh     change       -0.6327473E-05 Eh
   gradient norm :     0.0001749 Eh/α   predicted    -0.2206771E-05 ( -65.12%)
   displ. norm   :     0.0422622 α      lambda       -0.3781179E-05
   maximum displ.:     0.0395725 α      in ANC's #1, #5, #10, ...

........................................................................
.............................. CYCLE   42 ..............................
........................................................................

 iter      E             dE          RMSdq      gap      omega  full diag
   1    -32.0776431 -0.320776E+02  0.152E-02    3.66       0.0  T
   2    -32.0776431 -0.960979E-08  0.892E-03    3.66       2.2  T
   3    -32.0776431  0.701803E-10  0.539E-04    3.66      36.4  T
   4    -32.0776431 -0.363466E-08  0.235E-04    3.66      83.3  T
   5    -32.0776431 -0.439968E-09  0.988E-05    3.66     198.5  T
   6    -32.0776431 -0.271143E-10  0.366E-05    3.66     535.9  T
   7    -32.0776431 -0.616041E-11  0.961E-06    3.66    2041.3  T
   8    -32.0776431 -0.137845E-11  0.372E-06    3.66    5267.9  T
     SCC iter.                  ...        0 min,  0.074 sec
     gradient                   ...        0 min,  0.002 sec
 * total energy  :   -31.5568421 Eh     change       -0.5500538E-05 Eh
   gradient norm :     0.0001758 Eh/α   predicted    -0.1896879E-05 ( -65.51%)
   displ. norm   :     0.0376364 α      lambda       -0.3419357E-05
   maximum displ.:     0.0355337 α      in ANC's #1, #5, #4, ...
 * RMSD in coord.:     0.2207275 α      energy gain  -0.2951196E-03 Eh

generating ANC from model Hessian ...
Using Lindh-Hessian (1995)
 Shifting diagonal of input Hessian by   9.151815228048402E-003
 Lowest  eigenvalues of input Hessian
    0.000000    0.000000    0.000000    0.000000    0.000000    0.000000
    0.010000    0.010102    0.010608    0.011182    0.011661    0.012633
    0.015038    0.016556    0.018427    0.018660    0.023671    0.024260
 Highest eigenvalues
    1.363300    1.553813    1.573661    1.882354    1.987985    2.004200
 

........................................................................
.............................. CYCLE   43 ..............................
........................................................................

 iter      E             dE          RMSdq      gap      omega  full diag
   1    -32.0776630 -0.320777E+02  0.140E-02    3.66       0.0  T
   2    -32.0776630 -0.903803E-08  0.819E-03    3.66       2.4  T
   3    -32.0776630 -0.234841E-09  0.477E-04    3.66      41.1  T
   4    -32.0776630 -0.265818E-08  0.228E-04    3.66      85.8  T
   5    -32.0776630 -0.561435E-09  0.848E-05    3.66     231.2  T
   6    -32.0776630 -0.127756E-10  0.367E-05    3.66     535.0  T
   7    -32.0776630 -0.351719E-11  0.884E-06    3.66    2219.7  T
   8    -32.0776630 -0.120792E-11  0.370E-06    3.66    5304.8  T
     SCC iter.                  ...        0 min,  0.074 sec
     gradient                   ...        0 min,  0.002 sec
 * total energy  :   -31.5568471 Eh     change       -0.5015022E-05 Eh
   gradient norm :     0.0001739 Eh/α   predicted     0.0000000E+00 (-100.00%)
   displ. norm   :     0.0219176 α      lambda       -0.5256874E-07
   maximum displ.:     0.0182582 α      in ANC's #1, #2, #3, ...

........................................................................
.............................. CYCLE   44 ..............................
........................................................................

 iter      E             dE          RMSdq      gap      omega  full diag
   1    -32.0777104 -0.320777E+02  0.844E-03    3.66       0.0  T
   2    -32.0777104 -0.304257E-08  0.494E-03    3.66       4.0  T
   3    -32.0777104  0.425118E-10  0.272E-04    3.66      72.1  T
   4    -32.0777104 -0.100976E-08  0.146E-04    3.66     134.3  T
   5    -32.0777104 -0.281943E-09  0.521E-05    3.66     376.5  T
   6    -32.0777104 -0.402878E-11  0.227E-05    3.66     862.7  T
   7    -32.0777104 -0.274980E-11  0.528E-06    3.66    3715.7  T
   8    -32.0777104 -0.298428E-12  0.194E-06    3.66   10129.5  T
     SCC iter.                  ...        0 min,  0.074 sec
     gradient                   ...        0 min,  0.002 sec
 * total energy  :   -31.5568504 Eh     change       -0.3243486E-05 Eh
   gradient norm :     0.0001673 Eh/α   predicted    -0.1106690E-05 ( -65.88%)
   displ. norm   :     0.0440574 α      lambda       -0.4290528E-05
   maximum displ.:     0.0321886 α      in ANC's #1, #2, #3, ...

........................................................................
.............................. CYCLE   45 ..............................
........................................................................

 iter      E             dE          RMSdq      gap      omega  full diag
   1    -32.0777256 -0.320777E+02  0.167E-02    3.66       0.0  T
   2    -32.0777256 -0.133133E-07  0.975E-03    3.66       2.0  T
   3    -32.0777256  0.832564E-09  0.595E-04    3.66      33.0  T
   4    -32.0777256 -0.470357E-08  0.298E-04    3.66      65.8  T
   5    -32.0777256 -0.113116E-08  0.102E-04    3.66     192.9  T
   6    -32.0777256 -0.140545E-10  0.442E-05    3.66     444.0  T
   7    -32.0777256 -0.534328E-11  0.114E-05    3.66    1713.7  T
   8    -32.0777256 -0.223110E-11  0.397E-06    3.66    4936.3  T
   9    -32.0777256 -0.241585E-12  0.172E-06    3.66   11400.0  T
     SCC iter.                  ...        0 min,  0.074 sec
     gradient                   ...        0 min,  0.002 sec
 * total energy  :   -31.5568566 Eh     change       -0.6226541E-05 Eh
   gradient norm :     0.0001884 Eh/α   predicted    -0.2147797E-05 ( -65.51%)
   displ. norm   :     0.0859455 α      lambda       -0.7849992E-05
   maximum displ.:     0.0605691 α      in ANC's #1, #2, #3, ...

........................................................................
.............................. CYCLE   46 ..............................
........................................................................

 iter      E             dE          RMSdq      gap      omega  full diag
   1    -32.0776221 -0.320776E+02  0.326E-02    3.66       0.0  T
   2    -32.0776221 -0.471940E-07  0.191E-02    3.66       1.0  T
   3    -32.0776221  0.921409E-08  0.125E-03    3.66      15.6  T
   4    -32.0776221 -0.255159E-07  0.565E-04    3.66      34.7  T
   5    -32.0776222 -0.370878E-08  0.201E-04    3.66      97.5  T
   6    -32.0776222 -0.632738E-10  0.845E-05    3.66     232.2  T
   7    -32.0776222 -0.205773E-10  0.235E-05    3.66     834.4  T
   8    -32.0776222 -0.106795E-10  0.744E-06    3.66    2635.8  T
   9    -32.0776222 -0.653699E-12  0.283E-06    3.66    6940.0  T
     SCC iter.                  ...        0 min,  0.075 sec
     gradient                   ...        0 min,  0.002 sec
 * total energy  :   -31.5568677 Eh     change       -0.1106367E-04 Eh
   gradient norm :     0.0002030 Eh/α   predicted    -0.3939884E-05 ( -64.39%)
   displ. norm   :     0.1377020 α      lambda       -0.1138008E-04
   maximum displ.:     0.0965896 α      in ANC's #1, #2, #3, ...

........................................................................
.............................. CYCLE   47 ..............................
........................................................................

 iter      E             dE          RMSdq      gap      omega  full diag
   1    -32.0775619 -0.320776E+02  0.527E-02    3.65       0.0  T
   2    -32.0775620 -0.130342E-06  0.308E-02    3.65       1.0  T
   3    -32.0775620  0.195389E-07  0.200E-03    3.65       9.8  T
   4    -32.0775621 -0.596615E-07  0.929E-04    3.65      21.1  T
   5    -32.0775621 -0.108144E-07  0.317E-04    3.65      61.9  T
   6    -32.0775621 -0.158010E-09  0.136E-04    3.65     144.5  T
   7    -32.0775621 -0.549818E-10  0.401E-05    3.65     488.6  T
   8    -32.0775621 -0.280522E-10  0.120E-05    3.65    1628.7  T
   9    -32.0775621 -0.185452E-11  0.476E-06    3.65    4121.1  T
  10    -32.0775621 -0.135003E-12  0.183E-06    3.65   10715.0  T
     SCC iter.                  ...        0 min,  0.075 sec
     gradient                   ...        0 min,  0.002 sec
 * total energy  :   -31.5568832 Eh     change       -0.1552226E-04 Eh
   gradient norm :     0.0003217 Eh/α   predicted    -0.5746667E-05 ( -62.98%)
   displ. norm   :     0.1746883 α      lambda       -0.1270592E-04
   maximum displ.:     0.1230405 α      in ANC's #1, #2, #3, ...

........................................................................
.............................. CYCLE   48 ..............................
........................................................................

 iter      E             dE          RMSdq      gap      omega  full diag
   1    -32.0773755 -0.320774E+02  0.678E-02    3.65       0.0  T
   2    -32.0773757 -0.226389E-06  0.395E-02    3.65       1.0  T
   3    -32.0773757 -0.393781E-08  0.235E-03    3.65       8.3  T
   4    -32.0773758 -0.555220E-07  0.127E-03    3.65      15.4  T
   5    -32.0773758 -0.223833E-07  0.400E-04    3.65      49.0  T
   6    -32.0773758 -0.359087E-09  0.189E-04    3.65     103.6  T
   7    -32.0773758 -0.757794E-10  0.488E-05    3.65     402.2  T
   8    -32.0773758 -0.340492E-10  0.180E-05    3.65    1087.1  T
   9    -32.0773758 -0.479616E-11  0.653E-06    3.65    3004.5  T
  10    -32.0773758 -0.220268E-12  0.188E-06    3.65   10418.5  T
     SCC iter.                  ...        0 min,  0.075 sec
     gradient                   ...        0 min,  0.002 sec
 * total energy  :   -31.5568999 Eh     change       -0.1666645E-04 Eh
   gradient norm :     0.0005916 Eh/α   predicted    -0.6439324E-05 ( -61.36%)
   displ. norm   :     0.1898815 α      lambda       -0.1236300E-04
   maximum displ.:     0.1347971 α      in ANC's #1, #2, #3, ...

........................................................................
.............................. CYCLE   49 ..............................
........................................................................

 iter      E             dE          RMSdq      gap      omega  full diag
   1    -32.0772900 -0.320773E+02  0.745E-02    3.65       0.0  T
   2    -32.0772902 -0.255741E-06  0.435E-02    3.65       1.0  T
   3    -32.0772902  0.240706E-07  0.275E-03    3.64       7.1  T
[...]

           ------------------------------------------------- 
          |                Numerical Hessian                |
           ------------------------------------------------- 
step length          :   0.00500
SCC accuracy         :   0.30000
Hessian scale factor :   1.00000
frozen atoms in %    :   0.00000    0
RMS gradient         :   0.00005
estimated CPU  time      1.14 min
estimated wall time      0.14 min

writing file <hessian>.

 projected vibrational frequencies (cm⁻¹)
eigval :       -0.00    -0.00    -0.00     0.00     0.00     0.00
eigval :       17.96    50.31    65.03   121.05   122.34   164.17
eigval :      199.55   213.82   232.28   295.27   318.12   320.77
eigval :      363.62   401.31   450.39   586.11   657.51   668.67
eigval :      687.43   704.80   735.18   753.37   780.18   875.04
eigval :      899.16   926.87   932.98   969.38   975.71   998.56
eigval :     1003.60  1020.09  1062.82  1082.81  1085.07  1116.93
eigval :     1121.57  1181.69  1198.83  1217.01  1229.77  1244.60
eigval :     1255.32  1278.90  1315.82  1410.44  1411.10  1423.51
eigval :     1442.64  1449.90  1458.05  1497.23  1497.35  1501.64
eigval :     1501.84  1579.96  1589.64  2931.54  2936.85  2944.72
eigval :     2951.16  3013.96  3014.44  3019.45  3019.66  3029.55
eigval :     3030.66  3061.37  3063.72  3070.76  3076.95  3087.72
           -------------------------------------------------
          |                Property Printout                |
           -------------------------------------------------

    * Orbital Energies and Occupations

         #    Occupation            Energy/Eh            Energy/eV
      -------------------------------------------------------------
         1        2.0000           -0.6581231             -17.9084
       ...           ...                  ...                  ...
        18        2.0000           -0.4773485             -12.9893
        19        2.0000           -0.4746446             -12.9157
        20        2.0000           -0.4704276             -12.8010
        21        2.0000           -0.4563193             -12.4171
        22        2.0000           -0.4561992             -12.4138
        23        2.0000           -0.4423092             -12.0358
        24        2.0000           -0.4364990             -11.8777
        25        2.0000           -0.4232543             -11.5173
        26        2.0000           -0.4194626             -11.4142
        27        2.0000           -0.4052648             -11.0278
        28        2.0000           -0.4045254             -11.0077
        29        2.0000           -0.3970015             -10.8030
        30        2.0000           -0.3672877              -9.9944 (HOMO)
        31                         -0.2336328              -6.3575 (LUMO)
        32                         -0.2230291              -6.0689
        33                         -0.1548723              -4.2143
        34                         -0.1507533              -4.1022
        35                         -0.0927973              -2.5251
        36                          0.0045925               0.1250
        37                          0.0547993               1.4912
        38                          0.0923307               2.5124
        39                          0.1110128               3.0208
        40                          0.1352279               3.6797
        41                          0.1375530               3.7430
       ...                                ...                  ...
        64                          0.7796735              21.2160
      -------------------------------------------------------------
                  HL-Gap            0.1336550 Eh            3.6369 eV
             Fermi-level           -0.3004602 Eh           -8.1759 eV

     #   Z          covCN         q      C6AA      α(0)
     1  15 P        3.056    -0.118   165.595    23.117
     2   6 C        3.748    -0.047    21.475     6.610
     3   1 H        0.926     0.039     2.468     2.457
     4   1 H        0.925     0.042     2.418     2.432
     5   6 C        3.821    -0.096    22.317     6.723
     6   1 H        0.925     0.042     2.428     2.437
     7   1 H        0.925     0.036     2.501     2.473
     8   1 H        0.925     0.033     2.546     2.495
     9   6 C        2.916     0.011    27.767     8.641
    10   6 C        2.961    -0.027    28.681     8.784
    11   6 C        3.016    -0.030    28.728     8.792
    12   6 C        2.919    -0.031    28.784     8.798
    13   6 C        2.918    -0.030    28.749     8.792
    14   6 C        2.920    -0.029    28.734     8.790
    15   1 H        0.926     0.032     2.563     2.504
    16   1 H        0.925     0.040     2.451     2.448
    17   1 H        0.926     0.028     2.620     2.531
    18   1 H        0.926     0.030     2.588     2.516
    19   1 H        0.926     0.029     2.603     2.523
    20   6 C        3.748    -0.047    21.474     6.610
    21   1 H        0.925     0.042     2.420     2.433
    22   1 H        0.926     0.038     2.469     2.457
    23   6 C        3.821    -0.096    22.316     6.723
    24   1 H        0.925     0.036     2.501     2.473
    25   1 H        0.925     0.042     2.428     2.437
    26   1 H        0.925     0.033     2.546     2.495

 Mol. C6AA /au·bohr⁶  :       7598.921204
 Mol. C8AA /au·bohr⁸  :     202574.407238
 Mol. α(0) /au        :        139.490120


Wiberg/Mayer (AO) data.
largest (>0.10) Wiberg bond orders for each atom

 ---------------------------------------------------------------------------
     #   Z sym  total        # sym  WBO       # sym  WBO       # sym  WBO
 ---------------------------------------------------------------------------
     1  15 P    3.349 --    20 C    1.025     2 C    1.024     9 C    1.007
     2   6 C    3.993 --     1 P    1.024     5 C    1.017     3 H    0.958
                             4 H    0.951
     3   1 H    0.998 --     2 C    0.958
     4   1 H    0.998 --     2 C    0.951
     5   6 C    3.995 --     2 C    1.017     6 H    0.985     8 H    0.984
                             7 H    0.984
     6   1 H    0.998 --     5 C    0.985
     7   1 H    0.999 --     5 C    0.984
     8   1 H    0.999 --     5 C    0.984
     9   6 C    3.983 --    11 C    1.408    10 C    1.400     1 P    1.007
                            14 C    0.108
    10   6 C    3.993 --    12 C    1.450     9 C    1.400    15 H    0.961
                            13 C    0.111
    11   6 C    3.992 --    13 C    1.443     9 C    1.408    16 H    0.964
                            12 C    0.108
    12   6 C    3.993 --    10 C    1.450    14 C    1.432    17 H    0.970
                            11 C    0.108
    13   6 C    3.992 --    11 C    1.443    14 C    1.441    18 H    0.970
                            10 C    0.111
    14   6 C    3.985 --    13 C    1.441    12 C    1.432    19 H    0.971
                             9 C    0.108
    15   1 H    0.999 --    10 C    0.961
    16   1 H    0.998 --    11 C    0.964
    17   1 H    0.999 --    12 C    0.970
    18   1 H    0.999 --    13 C    0.970
    19   1 H    0.999 --    14 C    0.971
    20   6 C    3.993 --     1 P    1.025    23 C    1.017    22 H    0.958
                            21 H    0.951
    21   1 H    0.998 --    20 C    0.951
    22   1 H    0.998 --    20 C    0.958
    23   6 C    3.995 --    20 C    1.017    26 H    0.985    25 H    0.984
                            24 H    0.984
    24   1 H    0.999 --    23 C    0.984
    25   1 H    0.998 --    23 C    0.984
    26   1 H    0.999 --    23 C    0.985
 ---------------------------------------------------------------------------

Topologies differ in total number of bonds
Writing topology from bond orders to xtbtopo.mol

molecular dipole:
                 x           y           z       tot (Debye)
 q only:       -0.040       0.072       0.224
   full:        0.020       0.147       0.625       1.633
molecular quadrupole (traceless):
                xx          xy          yy          xz          yz          zz
 q only:        1.193       0.100       1.266       0.757      -0.535      -2.460
  q+dip:        5.559      -1.937      -0.766       3.047      -0.037      -4.793
   full:        5.048      -0.522       2.069       2.542      -1.239      -7.118

           -------------------------------------------------
          |                Geometry Summary                 |
           -------------------------------------------------

      molecular mass/u    :      166.2002322
   center of mass at/Å    :        2.8206056      -0.4850177      -2.1611128
  moments of inertia/u·Å² :        0.4040969E+03   0.6825518E+03   0.8623522E+03
rotational constants/cm⁻¹ :        0.4171681E-01   0.2469795E-01   0.1954843E-01

 * 25 selected distances

     #   Z          #   Z                                           value/Å
     1  15 P        2   6 C                                       1.8665269 (max)
     2   6 C        3   1 H                                       1.0939303
     2   6 C        4   1 H                                       1.0931563
     2   6 C        5   6 C                                       1.5223336
     5   6 C        6   1 H                                       1.0882615
     5   6 C        7   1 H                                       1.0890273
     5   6 C        8   1 H                                       1.0888042
     9   6 C       10   6 C                                       1.3900465
     9   6 C       11   6 C                                       1.3904322
    10   6 C       12   6 C                                       1.3825885
    11   6 C       13   6 C                                       1.3834098
    12   6 C       14   6 C                                       1.3854454
    13   6 C       14   6 C                                       1.3842059
    10   6 C       15   1 H                                       1.0809952
    11   6 C       16   1 H                                       1.0813747
    12   6 C       17   1 H                                       1.0809992
    13   6 C       18   1 H                                       1.0805183
    14   6 C       19   1 H                                       1.0803254 (min)
     1  15 P       20   6 C                                       1.8664423
    20   6 C       21   1 H                                       1.0930953
    20   6 C       22   1 H                                       1.0939897
    20   6 C       23   6 C                                       1.5223499
    23   6 C       24   1 H                                       1.0889996
    23   6 C       25   1 H                                       1.0882737
    23   6 C       26   1 H                                       1.0888027

 * 3 distinct bonds (by element types)

   Z      Z             #   av. dist./Å        max./Å        min./Å
   1 H    6 C          15     1.0873702     1.0939897     1.0803254
   6 C    6 C           8     1.4201015     1.5223499     1.3825885
   6 C   15 P           2     1.8664846     1.8665269     1.8664423

           -------------------------------------------------
          |               Frequency Printout                |
           -------------------------------------------------
 projected vibrational frequencies (cm⁻¹)
eigval :       -0.00    -0.00    -0.00     0.00     0.00     0.00
eigval :       17.96    50.31    65.03   121.05   122.34   164.17
eigval :      199.55   213.82   232.28   295.27   318.12   320.77
eigval :      363.62   401.31   450.39   586.11   657.51   668.67
eigval :      687.43   704.80   735.18   753.37   780.18   875.04
eigval :      899.16   926.87   932.98   969.38   975.71   998.56
eigval :     1003.60  1020.09  1062.82  1082.81  1085.07  1116.93
eigval :     1121.57  1181.69  1198.83  1217.01  1229.77  1244.60
eigval :     1255.32  1278.90  1315.82  1410.44  1411.10  1423.51
eigval :     1442.64  1449.90  1458.05  1497.23  1497.35  1501.64
eigval :     1501.84  1579.96  1589.64  2931.54  2936.85  2944.72
eigval :     2951.16  3013.96  3014.44  3019.45  3019.66  3029.55
eigval :     3030.66  3061.37  3063.72  3070.76  3076.95  3087.72
 reduced masses (amu)
   1: 12.16   2: 14.14   3: 11.89   4: 13.52   5: 13.41   6: 12.47   7:  9.54   8:  9.92
   9:  8.93  10:  7.10  11: 10.86  12:  6.88  13:  5.92  14:  5.28  15:  6.34  16: 10.37
  17: 12.95  18: 13.93  19:  8.83  20: 20.93  21: 10.12  22: 11.18  23: 10.31  24: 12.37
  25: 16.42  26: 16.18  27:  2.77  28:  4.02  29:  4.80  30:  3.30  31:  3.54  32:  4.19
  33:  3.01  34: 11.09  35:  2.22  36:  3.66  37:  2.97  38:  4.29  39:  9.72  40:  7.84
  41:  9.40  42:  7.66  43:  5.37  44:  1.33  45:  1.92  46:  3.62  47:  3.38  48:  4.54
  49:  4.27  50:  3.43  51: 11.95  52:  2.91  53:  2.96  54:  8.58  55:  2.03  56:  2.66
  57:  7.79  58:  1.52  59:  1.52  60:  1.56  61:  1.56  62: 11.45  63: 11.46  64:  1.95
  65:  1.96  66:  1.53  67:  1.50  68:  1.92  69:  1.92  70:  1.80  71:  1.81  72:  1.43
  73:  1.42  74:  1.76  75:  1.79  76:  1.82  77:  1.86  78:  1.91
 IR intensities (km·mol⁻¹)
   1:  0.23   2:  0.10   3:  0.01   4:  0.02   5:  0.02   6:  0.07   7:  0.08   8:  0.06
   9:  0.03  10:  0.10  11:  0.26  12:  0.27  13:  0.20  14:  0.17  15:  0.55  16:  0.15
  17:  0.23  18:  0.11  19:  0.01  20:  5.90  21:  2.21  22:  0.14  23:  0.38  24:  7.22
  25: 36.62  26: 28.21  27: 17.86  28:  0.09  29: 38.49  30:  0.01  31:  0.01  32:  0.02
  33:  0.00  34:  0.89  35:  4.21  36:  3.53  37:  2.66  38:  0.25  39:  6.55  40:  0.35
  41:  0.34  42:  4.80  43:  4.05  44:  0.03  45:  0.67  46:  0.54  47:  3.86  48:  6.25
  49:  7.64  50:  1.58  51:  0.90  52:  3.90  53:  0.13  54:  1.85  55:  0.27  56:  0.45
  57:  0.58  58:  0.21  59:  4.47  60:  0.52  61:  2.17  62:  0.72  63:  0.35  64:  1.37
  65: 48.50  66:  3.79  67: 39.63  68: 51.93  69: 50.32  70: 33.99  71: 27.07  72: 10.52
  73: 22.40  74:  9.97  75:  8.55  76: 12.22  77: 82.98  78: 62.56
 Raman intensities (Ä⁴*amu⁻¹)
   1:  0.00   2:  0.00   3:  0.00   4:  0.00   5:  0.00   6:  0.00   7:  0.00   8:  0.00
   9:  0.00  10:  0.00  11:  0.00  12:  0.00  13:  0.00  14:  0.00  15:  0.00  16:  0.00
  17:  0.00  18:  0.00  19:  0.00  20:  0.00  21:  0.00  22:  0.00  23:  0.00  24:  0.00
  25:  0.00  26:  0.00  27:  0.00  28:  0.00  29:  0.00  30:  0.00  31:  0.00  32:  0.00
  33:  0.00  34:  0.00  35:  0.00  36:  0.00  37:  0.00  38:  0.00  39:  0.00  40:  0.00
  41:  0.00  42:  0.00  43:  0.00  44:  0.00  45:  0.00  46:  0.00  47:  0.00  48:  0.00
  49:  0.00  50:  0.00  51:  0.00  52:  0.00  53:  0.00  54:  0.00  55:  0.00  56:  0.00
  57:  0.00  58:  0.00  59:  0.00  60:  0.00  61:  0.00  62:  0.00  63:  0.00  64:  0.00
  65:  0.00  66:  0.00  67:  0.00  68:  0.00  69:  0.00  70:  0.00  71:  0.00  72:  0.00
  73:  0.00  74:  0.00  75:  0.00  76:  0.00  77:  0.00  78:  0.00
 output can be read by thermo (or use thermo option).
 writing <g98.out> molden fake output.
 recommended (thermochemical) frequency scaling factor: 1.0
           -------------------------------------------------
          |             Thermodynamic Functions             |
           -------------------------------------------------

Refinement of some symmetry elements was terminated before convergence was reached.
Some symmetry elements may remain unidentified.
Molecule has no symmetry elements
It seems to be the C1 point group
c1  symmetry found (for desy threshold:  0.10E+00) used in thermo

          ...................................................
          :                      SETUP                      :
          :.................................................:
          :  # frequencies                          72      :
          :  # imaginary freq.                       0      :
          :  linear?                             false      :
          :  only rotor calc.                    false      :
          :  symmetry                               c1      :
          :  rotational number                       1      :
          :  scaling factor                  1.0000000      :
          :  rotor cutoff                   50.0000000 cm⁻¹ :
          :  imag. cutoff                  -20.0000000 cm⁻¹ :
          :.................................................:

    mode    ω/cm⁻¹     T·S(HO)/kcal·mol⁻¹    T·S(FR)/kcal·mol⁻¹   T·S(vib)
   ------------------------------------------------------------------------
       1     17.96    -2.04181 (  1.64%)    -1.35950 ( 98.36%)    -1.37066
       2     50.31    -1.43261 ( 50.63%)    -1.05455 ( 49.37%)    -1.24594
       3     65.03    -1.28161 ( 74.10%)    -0.97859 ( 25.90%)    -1.20312
       4    121.05    -0.91935 ( 97.17%)    -0.79455 (  2.83%)    -0.91582
       5    122.34    -0.91325 ( 97.29%)    -0.79141 (  2.71%)    -0.90994
       6    164.17    -0.74574 ( 99.15%)    -0.70431 (  0.85%)    -0.74539
       7    199.55    -0.63721 ( 99.61%)    -0.64650 (  0.39%)    -0.63725
       8    213.82    -0.59952 ( 99.70%)    -0.62604 (  0.30%)    -0.59960
       9    232.28    -0.55493 ( 99.79%)    -0.60151 (  0.21%)    -0.55503
      10    295.27    -0.43040 ( 99.92%)    -0.53044 (  0.08%)    -0.43048
   ------------------------------------------------------------------------

   temp. (K)  partition function   enthalpy   heat capacity  entropy
                                   cal/mol     cal/K/mol   cal/K/mol   J/K/mol
 298.15  VIB  0.379E+05             6235.668     39.143     38.704
         ROT  0.118E+07              888.752      2.981     30.762
         INT  0.447E+11             7124.420     42.124     69.466
         TR   0.207E+28             1481.254      4.968     41.214
         TOT                        8605.6740    47.0921   110.6797   463.0840

       T/K    H(0)-H(T)+PV         H(T)/Eh          T*S/Eh         G(T)/Eh
   ------------------------------------------------------------------------
    298.15    0.137140E-01    0.232230E+00    0.525875E-01    0.179643E+00
   ------------------------------------------------------------------------

         :::::::::::::::::::::::::::::::::::::::::::::::::::::
         ::                  THERMODYNAMIC                  ::
         :::::::::::::::::::::::::::::::::::::::::::::::::::::
         :: total free energy         -31.377378793118 Eh   ::
         ::.................................................::
         :: total energy              -31.557021635098 Eh   ::
         :: zero point energy           0.218516334513 Eh   ::
         :: G(RRHO) w/o ZPVE           -0.038873492533 Eh   ::
         :: G(RRHO) contrib.            0.179642841980 Eh   ::
         :::::::::::::::::::::::::::::::::::::::::::::::::::::

optimized geometry written to: xtbopt.xyz


           -------------------------------------------------
          | TOTAL ENERGY              -31.557021635098 Eh   |
          | TOTAL ENTHALPY            -31.324791286092 Eh   |
          | TOTAL FREE ENERGY         -31.377378793118 Eh   |
          | GRADIENT NORM               0.000046775951 Eh/α |
          | HOMO-LUMO GAP               3.636937493918 eV   |
           -------------------------------------------------

------------------------------------------------------------------------
 * finished run on 2025/07/14 at 11:34:16.783     
------------------------------------------------------------------------
 total:
 * wall-time:     0 d,  0 h,  0 min,  9.099 sec
 *  cpu-time:     0 d,  0 h,  1 min, 36.309 sec
 * ratio c/w:    10.585 speedup
 SCF:
 * wall-time:     0 d,  0 h,  0 min,  0.087 sec
 *  cpu-time:     0 d,  0 h,  0 min,  1.047 sec
 * ratio c/w:    11.972 speedup
 ANC optimizer:
 * wall-time:     0 d,  0 h,  0 min,  5.732 sec
 *  cpu-time:     0 d,  0 h,  1 min,  8.657 sec
 * ratio c/w:    11.978 speedup
 analytical hessian:
 * wall-time:     0 d,  0 h,  0 min,  3.267 sec
 *  cpu-time:     0 d,  0 h,  0 min, 26.471 sec
 * ratio c/w:     8.103 speedup

