      -----------------------------------------------------------      
     |                   =====================                   |     
     |                           x T B                           |     
     |                   =====================                   |     
     |                         S. Grimme                         |     
     |          Mulliken Center for Theoretical Chemistry        |     
     |                    University of Bonn                     |     
      -----------------------------------------------------------      

   * xtb version 6.7.0 (08769fc) compiled by 'albert@albert-system' on 2024-03-04

   xtb is free software: you can redistribute it and/or modify it under
   the terms of the GNU Lesser General Public License as published by
   the Free Software Foundation, either version 3 of the License, or
   (at your option) any later version.
   
   xtb is distributed in the hope that it will be useful,
   but WITHOUT ANY WARRANTY; without even the implied warranty of
   MERCHANTABILITY or FITNESS FOR A PARTICULAR PURPOSE.  See the
   GNU Lesser General Public License for more details.
   
   Cite this work as:
   * C. Bannwarth, E. Caldeweyher, S. Ehlert, A. Hansen, P. Pracht,
     J. Seibert, S. Spicher, S. Grimme, WIREs Comput. Mol. Sci., 2020, 11,
     e01493. DOI: 10.1002/wcms.1493
   
   for GFN2-xTB:
   * C. Bannwarth, S. Ehlert and S. Grimme., J. Chem. Theory Comput., 2019,
     15, 1652-1671. DOI: 10.1021/acs.jctc.8b01176
   for GFN1-xTB:
   * S. Grimme, C. Bannwarth, P. Shushkov, J. Chem. Theory Comput., 2017,
     13, 1989-2009. DOI: 10.1021/acs.jctc.7b00118
   for GFN0-xTB:
   * P. Pracht, E. Caldeweyher, S. Ehlert, S. Grimme, ChemRxiv, 2019, preprint.
     DOI: 10.26434/chemrxiv.8326202.v1
   for GFN-FF:
   * S. Spicher and S. Grimme, Angew. Chem. Int. Ed., 2020, 59, 15665-15673.
     DOI: 10.1002/anie.202004239
   
   for ALPB and GBSA implicit solvation:
   * S. Ehlert, M. Stahn, S. Spicher, S. Grimme, J. Chem. Theory Comput.,
     2021, 17, 4250-4261. DOI: 10.1021/acs.jctc.1c00471
   
   for ddCOSMO and CPCM-X implicit solvation:
   * M. Stahn, S. Ehlert, S. Grimme, J. Phys. Chem. A,
     2023, XX, XXXX-XXXX. DOI: 10.1021/acs.jpca.3c04382
   
   for DFT-D4:
   * E. Caldeweyher, C. Bannwarth and S. Grimme, J. Chem. Phys., 2017,
     147, 034112. DOI: 10.1063/1.4993215
   * E. Caldeweyher, S. Ehlert, A. Hansen, H. Neugebauer, S. Spicher,
     C. Bannwarth and S. Grimme, J. Chem. Phys., 2019, 150, 154122.
     DOI: 10.1063/1.5090222
   * E. Caldeweyher, J.-M. Mewes, S. Ehlert and S. Grimme, Phys. Chem. Chem. Phys.
     2020, 22, 8499-8512. DOI: 10.1039/D0CP00502A
   
   for sTDA-xTB:
   * S. Grimme and C. Bannwarth, J. Chem. Phys., 2016, 145, 054103.
     DOI: 10.1063/1.4959605
   
   in the mass-spec context:
   * V. Asgeirsson, C. Bauer and S. Grimme, Chem. Sci., 2017, 8, 4879.
     DOI: 10.1039/c7sc00601b
   * J. Koopman and S. Grimme, ACS Omega 2019, 4, 12, 15120-15133.
     DOI: 10.1021/acsomega.9b02011
   
   for metadynamics refer to:
   * S. Grimme, J. Chem. Theory Comput., 2019, 155, 2847-2862
     DOI: 10.1021/acs.jctc.9b00143
   
   for SPH calculations refer to:
   * S. Spicher and S. Grimme, J. Chem. Theory Comput., 2021, 17, 1701-1714
     DOI: 10.1021/acs.jctc.0c01306
   
   for ONIOM refer to:
   * C. Plett, A. Katbashev, S. Ehlert, S. Grimme, M. Bursch,
     Phys. Chem. Chem. Phys., 2023, 25, 17860-17868. DOI: 10.1039/D3CP02178E
   
   for DIPRO refer to:
   * J. Kohn, N. Gildemeister, S. Grimme, D. Fazzi, A. Hansen,
     J. Chem. Phys., 2023, just accepted.
   
   for PTB refer to:
   * S. Grimme, M. Mueller, A. Hansen, J. Chem. Phys., 2023, 158, 124111.
     DOI: 10.1063/5.0137838
   
   with help from (in alphabetical order)
   P. Atkinson, C. Bannwarth, F. Bohle, G. Brandenburg, E. Caldeweyher
   M. Checinski, S. Dohm, S. Ehlert, S. Ehrlich, I. Gerasimov, C. Hölzer
   A. Katbashev, J. Kohn, J. Koopman, C. Lavigne, S. Lehtola, F. März, M. Müller,
   F. Musil, H. Neugebauer, J. Pisarek, C. Plett, P. Pracht, F. Pultar,
   J. Seibert, P. Shushkov, S. Spicher, M. Stahn, M. Steiner, T. Strunk,
   J. Stückrath, T. Rose, and J. Unsleber
   
 * started run on 2025/07/14 at 11:35:21.663     
   ID    Z sym.   atoms
    1   15 P      1
    2    6 C      2, 5, 9-14, 20, 23
    3    1 H      3, 4, 6-8, 15-19, 21, 22, 24-26

           -------------------------------------------------
          |                Calculation Setup                |
           -------------------------------------------------

          program call               : /home/minenky/programs/xtb/xtb-dist/bin/xtb m1_00_PEt2Ph-PBE0-D3-TZ-uniMM_57.xyz --charge 0 --T --ohess extreme --cycles 5000 --acc 0.01 --iterations 5000
          coordinate file            : m1_00_PEt2Ph-PBE0-D3-TZ-uniMM_57.xyz
          omp threads                :                    12

########################################################################
[WARNING] Please study the warnings concerning your input carefully
-1- prog_main_parseArguments: Unknown option '--T' provided
########################################################################

           -------------------------------------------------
          |                 G F N 2 - x T B                 |
           -------------------------------------------------

        Reference                      10.1021/acs.jctc.8b01176
      * Hamiltonian:
        H0-scaling (s, p, d)           1.850000    2.230000    2.230000
        zeta-weighting                 0.500000
      * Dispersion:
        s8                             2.700000
        a1                             0.520000
        a2                             5.000000
        s9                             5.000000
      * Repulsion:
        kExp                           1.500000    1.000000
        rExp                           1.000000
      * Coulomb:
        alpha                          2.000000
        third order                    shell-resolved
        anisotropic                    true
        a3                             3.000000
        a5                             4.000000
        cn-shift                       1.200000
        cn-exp                         4.000000
        max-rad                        5.000000


          ...................................................
          :                      SETUP                      :
          :.................................................:
          :  # basis functions                  65          :
          :  # atomic orbitals                  64          :
          :  # shells                           38          :
          :  # electrons                        60          :
          :  max. iterations                  5000          :
          :  Hamiltonian                  GFN2-xTB          :
          :  restarted?                      false          :
          :  GBSA solvation                  false          :
          :  PC potential                    false          :
          :  electronic temp.          300.0000000     K    :
          :  accuracy                    0.0100000          :
          :  -> integral cutoff          0.4500000E+02      :
          :  -> integral neglect         0.1000000E-09      :
          :  -> SCF convergence          0.1000000E-07 Eh   :
          :  -> wf. convergence          0.1000000E-05 e    :
          :  Broyden damping             0.4000000          :
          :  net charge                          0          :
          :  unpaired electrons                  0          :
          ...................................................

 iter      E             dE          RMSdq      gap      omega  full diag
   1    -32.0028720 -0.320029E+02  0.354E+00    3.95       0.0  T
   2    -32.0463568 -0.434848E-01  0.211E+00    3.41       1.0  T
   3    -32.0465022 -0.145468E-03  0.863E-01    3.11       1.0  T
   4    -32.0471993 -0.697094E-03  0.300E-01    3.13       1.0  T
   5    -32.0485173 -0.131800E-02  0.115E-01    3.17       1.0  T
   6    -32.0487129 -0.195597E-03  0.397E-02    3.16       1.0  T
   7    -32.0487274 -0.145260E-04  0.165E-02    3.17       1.2  T
   8    -32.0487280 -0.549084E-06  0.717E-03    3.17       2.7  T
   9    -32.0487287 -0.712024E-06  0.145E-03    3.17      13.5  T
  10    -32.0487287 -0.288541E-07  0.678E-04    3.17      28.9  T
  11    -32.0487287 -0.134279E-08  0.306E-04    3.17      64.0  T
  12    -32.0487287 -0.658552E-09  0.542E-05    3.17     361.7  T
  13    -32.0487287 -0.498801E-11  0.258E-05    3.17     761.6  T
  14    -32.0487287 -0.177636E-11  0.999E-06    3.17    1962.5  T
  15    -32.0487287 -0.270006E-12  0.286E-06    3.17    6849.0  T

   *** convergence criteria satisfied after 15 iterations ***

         #    Occupation            Energy/Eh            Energy/eV
      -------------------------------------------------------------
         1        2.0000           -0.6603465             -17.9689
       ...           ...                  ...                  ...
        24        2.0000           -0.4364883             -11.8775
        25        2.0000           -0.4222491             -11.4900
        26        2.0000           -0.4193946             -11.4123
        27        2.0000           -0.4105453             -11.1715
        28        2.0000           -0.4017344             -10.9318
        29        2.0000           -0.3975790             -10.8187
        30        2.0000           -0.3525323              -9.5929 (HOMO)
        31                         -0.2361247              -6.4253 (LUMO)
        32                         -0.2240525              -6.0968
        33                         -0.1452085              -3.9513
        34                         -0.1387881              -3.7766
        35                         -0.0906235              -2.4660
       ...                                ...                  ...
        64                          0.7831455              21.3105
      -------------------------------------------------------------
                  HL-Gap            0.1164076 Eh            3.1676 eV
             Fermi-level           -0.2943285 Eh           -8.0091 eV

 SCC (total)                   0 d,  0 h,  0 min,  0.088 sec
 SCC setup                      ...        0 min,  0.000 sec (  0.142%)
 Dispersion                     ...        0 min,  0.000 sec (  0.139%)
 classical contributions        ...        0 min,  0.000 sec (  0.010%)
 integral evaluation            ...        0 min,  0.002 sec (  2.191%)
 iterations                     ...        0 min,  0.084 sec ( 95.246%)
 molecular gradient             ...        0 min,  0.002 sec (  2.162%)
 printout                       ...        0 min,  0.000 sec (  0.088%)

         :::::::::::::::::::::::::::::::::::::::::::::::::::::
         ::                     SUMMARY                     ::
         :::::::::::::::::::::::::::::::::::::::::::::::::::::
         :: total energy             -31.533725166707 Eh    ::
         :: gradient norm              0.060078191541 Eh/a0 ::
         :: HOMO-LUMO gap              3.167612679352 eV    ::
         ::.................................................::
         :: SCC energy               -32.048523722327 Eh    ::
         :: -> isotropic ES            0.004410721254 Eh    ::
         :: -> anisotropic ES          0.005594304751 Eh    ::
         :: -> anisotropic XC          0.022767013221 Eh    ::
         :: -> dispersion             -0.024247744984 Eh    ::
         :: repulsion energy           0.514798555620 Eh    ::
         :: add. restraining           0.000000000000 Eh    ::
         :: total charge              -0.000000000000 e     ::
         :::::::::::::::::::::::::::::::::::::::::::::::::::::

      ----------------------------------------------------------- 
     |                   =====================                   |
     |                        A N C O P T                        |
     |                   =====================                   |
     |               Approximate Normal Coordinate               |
     |                Rational Function Optimizer                |
      ----------------------------------------------------------- 
      ----------------------------------------------------------- 
     |                   =====================                   |
     |                        A N C O P T                        |
     |                   =====================                   |
     |               Approximate Normal Coordinate               |
     |                Rational Function Optimizer                |
      ----------------------------------------------------------- 

          ...................................................
          :                      SETUP                      :
          :.................................................:
          :   optimization level           extreme          :
          :   max. optcycles                  5000          :
          :   ANC micro-cycles                  20          :
          :   degrees of freedom                72          :
          :.................................................:
          :   RF solver                   davidson          :
          :   write xtbopt.log                true          :
          :   linear?                        false          :
          :   energy convergence         0.5000000E-07 Eh   :
          :   grad. convergence          0.5000000E-04 Eh/α :
          :   maxmium RF displ.          1.0000000          :
          :   Hlow (freq-cutoff)         0.1000000E-01      :
          :   Hmax (freq-cutoff)         5.0000000          :
          :   S6 in model hess.         20.0000000          :
          ...................................................

generating ANC from model Hessian ...
Using Lindh-Hessian (1995)
 Shifting diagonal of input Hessian by   1.450186460178043E-002
 Lowest  eigenvalues of input Hessian
    0.010000    0.000000    0.000000    0.000000    0.000000    0.000000
    0.000000    0.014734    0.015526    0.016419    0.016540    0.017725
    0.019983    0.022876    0.023201    0.024777    0.027060    0.028329
 Highest eigenvalues
    1.352246    1.539812    1.567410    1.868933    1.970964    1.991111
 

........................................................................
.............................. CYCLE    1 ..............................
........................................................................

 iter      E             dE          RMSdq      gap      omega  full diag
   1    -32.0487287 -0.320487E+02  0.141E-06    3.17       0.0  T
   2    -32.0487287 -0.142109E-13  0.737E-07    3.17   26607.9  T
   3    -32.0487287 -0.355271E-13  0.510E-07    3.17   38474.6  T
     SCC iter.                  ...        0 min,  0.074 sec
     gradient                   ...        0 min,  0.002 sec
 * total energy  :   -31.5337252 Eh     change       -0.1563194E-12 Eh
   gradient norm :     0.0600782 Eh/α   predicted     0.0000000E+00 (-100.00%)
   displ. norm   :     0.5960408 α      lambda       -0.2013762E-01
   maximum displ.:     0.4794154 α      in ANC's #1, #13, #5, ...

........................................................................
.............................. CYCLE    2 ..............................
........................................................................

 iter      E             dE          RMSdq      gap      omega  full diag
   1    -32.0607591 -0.320608E+02  0.532E-01    3.45       0.0  T
   2    -32.0611397 -0.380582E-03  0.242E-01    3.52       1.0  T
   3    -32.0611639 -0.241703E-04  0.879E-02    3.57       1.0  T
   4    -32.0611564  0.748520E-05  0.493E-02    3.57       1.0  T
   5    -32.0611927 -0.362817E-04  0.108E-02    3.57       1.8  T
   6    -32.0611941 -0.143796E-05  0.498E-03    3.57       3.9  T
   7    -32.0611942 -0.974307E-07  0.203E-03    3.57       9.6  T
   8    -32.0611942 -0.110368E-07  0.641E-04    3.57      30.6  T
   9    -32.0611942 -0.455400E-08  0.230E-04    3.57      85.4  T
  10    -32.0611942 -0.268962E-09  0.763E-05    3.57     257.0  T
  11    -32.0611942 -0.219131E-10  0.340E-05    3.57     577.2  T
  12    -32.0611942 -0.546407E-11  0.112E-05    3.57    1757.2  T
  13    -32.0611942 -0.341061E-12  0.483E-06    3.57    4059.0  T
  14    -32.0611942 -0.781597E-13  0.954E-07    3.57   20549.8  T
     SCC iter.                  ...        0 min,  0.076 sec
     gradient                   ...        0 min,  0.002 sec
 * total energy  :   -31.5451268 Eh     change       -0.1140167E-01 Eh
   gradient norm :     0.0198651 Eh/α   predicted    -0.1364591E-01 (  19.68%)
   displ. norm   :     0.3958320 α      lambda       -0.3957416E-02
   maximum displ.:     0.2811641 α      in ANC's #1, #4, #11, ...

........................................................................
.............................. CYCLE    3 ..............................
........................................................................

 iter      E             dE          RMSdq      gap      omega  full diag
   1    -32.0652406 -0.320652E+02  0.174E-01    3.58       0.0  T
   2    -32.0652513 -0.107604E-04  0.100E-01    3.58       1.0  T
   3    -32.0652498  0.148158E-05  0.182E-02    3.58       1.1  T
   4    -32.0652517 -0.189907E-05  0.799E-03    3.58       2.5  T
   5    -32.0652527 -0.982012E-06  0.211E-03    3.58       9.3  T
   6    -32.0652528 -0.408813E-07  0.883E-04    3.58      22.2  T
   7    -32.0652528 -0.861874E-09  0.432E-04    3.58      45.4  T
   8    -32.0652528 -0.210373E-08  0.132E-04    3.58     149.1  T
   9    -32.0652528 -0.152269E-09  0.610E-05    3.58     321.3  T
  10    -32.0652528 -0.145661E-10  0.236E-05    3.58     829.9  T
  11    -32.0652528 -0.667910E-12  0.813E-06    3.58    2412.6  T
  12    -32.0652528 -0.774492E-12  0.324E-06    3.58    6053.0  T
     SCC iter.                  ...        0 min,  0.075 sec
     gradient                   ...        0 min,  0.002 sec
 * total energy  :   -31.5481314 Eh     change       -0.3004589E-02 Eh
   gradient norm :     0.0096873 Eh/α   predicted    -0.2288741E-02 ( -23.83%)
   displ. norm   :     0.4912983 α      lambda       -0.2768826E-02
   maximum displ.:     0.3278330 α      in ANC's #1, #7, #4, ...

........................................................................
.............................. CYCLE    4 ..............................
........................................................................

 iter      E             dE          RMSdq      gap      omega  full diag
   1    -32.0668381 -0.320668E+02  0.168E-01    3.59       0.0  T
   2    -32.0668469 -0.876078E-05  0.973E-02    3.59       1.0  T
   3    -32.0668413  0.556368E-05  0.211E-02    3.59       1.0  T
   4    -32.0668476 -0.629585E-05  0.925E-03    3.59       2.1  T
   5    -32.0668488 -0.123588E-05  0.209E-03    3.59       9.4  T
   6    -32.0668489 -0.504327E-07  0.929E-04    3.59      21.1  T
   7    -32.0668489 -0.385692E-08  0.448E-04    3.59      43.7  T
   8    -32.0668489 -0.794351E-09  0.148E-04    3.59     132.8  T
   9    -32.0668489 -0.379941E-09  0.593E-05    3.59     330.9  T
  10    -32.0668489 -0.173230E-10  0.250E-05    3.59     783.6  T
  11    -32.0668489 -0.618172E-12  0.793E-06    3.59    2472.7  T
  12    -32.0668489 -0.554223E-12  0.294E-06    3.59    6661.5  T
     SCC iter.                  ...        0 min,  0.075 sec
     gradient                   ...        0 min,  0.002 sec
 * total energy  :   -31.5501166 Eh     change       -0.1985223E-02 Eh
   gradient norm :     0.0088822 Eh/α   predicted    -0.1718579E-02 ( -13.43%)
   displ. norm   :     0.4296437 α      lambda       -0.1374128E-02
   maximum displ.:     0.2811976 α      in ANC's #1, #7, #8, ...

........................................................................
.............................. CYCLE    5 ..............................
........................................................................

 iter      E             dE          RMSdq      gap      omega  full diag
   1    -32.0680355 -0.320680E+02  0.125E-01    3.57       0.0  T
   2    -32.0680390 -0.344034E-05  0.738E-02    3.57       1.0  T
   3    -32.0680364  0.256422E-05  0.130E-02    3.57       1.5  T
   4    -32.0680394 -0.299028E-05  0.526E-03    3.57       3.7  T
   5    -32.0680398 -0.410414E-06  0.163E-03    3.57      12.0  T
   6    -32.0680398 -0.153558E-07  0.840E-04    3.57      23.4  T
   7    -32.0680398 -0.298795E-08  0.235E-04    3.57      83.4  T
   8    -32.0680398 -0.319169E-09  0.993E-05    3.57     197.6  T
   9    -32.0680398 -0.123649E-09  0.377E-05    3.57     519.5  T
  10    -32.0680398 -0.240874E-11  0.150E-05    3.57    1307.3  T
  11    -32.0680398 -0.194689E-11  0.581E-06    3.57    3375.4  T
  12    -32.0680398 -0.135003E-12  0.195E-06    3.57   10072.5  T
     SCC iter.                  ...        0 min,  0.075 sec
     gradient                   ...        0 min,  0.002 sec
 * total energy  :   -31.5511124 Eh     change       -0.9957627E-03 Eh
   gradient norm :     0.0084766 Eh/α   predicted    -0.8138959E-03 ( -18.26%)
   displ. norm   :     0.3554266 α      lambda       -0.7238796E-03
   maximum displ.:     0.2089057 α      in ANC's #1, #7, #8, ...

........................................................................
.............................. CYCLE    6 ..............................
........................................................................

 iter      E             dE          RMSdq      gap      omega  full diag
   1    -32.0696134 -0.320696E+02  0.114E-01    3.56       0.0  T
   2    -32.0696166 -0.322220E-05  0.658E-02    3.57       1.0  T
   3    -32.0696160  0.653313E-06  0.106E-02    3.57       1.9  T
   4    -32.0696169 -0.885348E-06  0.454E-03    3.57       4.3  T
   5    -32.0696171 -0.260837E-06  0.128E-03    3.57      15.3  T
   6    -32.0696171 -0.177854E-07  0.622E-04    3.57      31.5  T
   7    -32.0696171 -0.111939E-08  0.167E-04    3.57     117.1  T
   8    -32.0696171 -0.845972E-10  0.698E-05    3.57     281.1  T
   9    -32.0696171 -0.254019E-10  0.270E-05    3.57     727.0  T
  10    -32.0696171 -0.163425E-11  0.128E-05    3.57    1531.9  T
  11    -32.0696171 -0.596856E-12  0.446E-06    3.57    4397.0  T
  12    -32.0696171 -0.135003E-12  0.162E-06    3.57   12082.9  T
     SCC iter.                  ...        0 min,  0.075 sec
     gradient                   ...        0 min,  0.002 sec
 * total energy  :   -31.5516124 Eh     change       -0.4999909E-03 Eh
   gradient norm :     0.0057585 Eh/α   predicted    -0.4076650E-03 ( -18.47%)
   displ. norm   :     0.2416877 α      lambda       -0.2928872E-03
   maximum displ.:     0.1417764 α      in ANC's #1, #7, #8, ...

........................................................................
.............................. CYCLE    7 ..............................
........................................................................

 iter      E             dE          RMSdq      gap      omega  full diag
   1    -32.0712015 -0.320712E+02  0.842E-02    3.55       0.0  T
   2    -32.0712041 -0.255157E-05  0.478E-02    3.55       1.0  T
   3    -32.0712039  0.167724E-06  0.912E-03    3.55       2.2  T
   4    -32.0712042 -0.286926E-06  0.375E-03    3.55       5.2  T
   5    -32.0712043 -0.151860E-06  0.933E-04    3.55      21.0  T
   6    -32.0712044 -0.151345E-07  0.474E-04    3.55      41.4  T
   7    -32.0712044 -0.156271E-08  0.145E-04    3.55     135.5  T
   8    -32.0712044 -0.213582E-09  0.628E-05    3.55     312.5  T
   9    -32.0712044 -0.261622E-10  0.199E-05    3.55     985.2  T
  10    -32.0712044 -0.116529E-11  0.926E-06    3.55    2117.5  T
  11    -32.0712044 -0.582645E-12  0.306E-06    3.55    6414.8  T
     SCC iter.                  ...        0 min,  0.074 sec
     gradient                   ...        0 min,  0.002 sec
 * total energy  :   -31.5518109 Eh     change       -0.1985452E-03 Eh
   gradient norm :     0.0029980 Eh/α   predicted    -0.1549984E-03 ( -21.93%)
   displ. norm   :     0.1805978 α      lambda       -0.1406345E-03
   maximum displ.:     0.0837861 α      in ANC's #1, #8, #3, ...

........................................................................
.............................. CYCLE    8 ..............................
........................................................................

 iter      E             dE          RMSdq      gap      omega  full diag
   1    -32.0721927 -0.320722E+02  0.682E-02    3.55       0.0  T
   2    -32.0721943 -0.168283E-05  0.382E-02    3.56       1.0  T
   3    -32.0721942  0.135330E-06  0.746E-03    3.56       2.6  T
   4    -32.0721944 -0.160173E-06  0.311E-03    3.56       6.3  T
   5    -32.0721945 -0.134133E-06  0.700E-04    3.56      28.0  T
   6    -32.0721945 -0.110987E-07  0.303E-04    3.56      64.7  T
   7    -32.0721945 -0.411816E-09  0.112E-04    3.56     174.4  T
   8    -32.0721945 -0.147317E-09  0.335E-05    3.56     585.9  T
   9    -32.0721945 -0.568434E-11  0.132E-05    3.56    1482.3  T
  10    -32.0721945 -0.547118E-12  0.612E-06    3.56    3205.9  T
  11    -32.0721945 -0.639488E-13  0.225E-06    3.56    8708.2  T
     SCC iter.                  ...        0 min,  0.074 sec
     gradient                   ...        0 min,  0.002 sec
 * total energy  :   -31.5519141 Eh     change       -0.1031541E-03 Eh
   gradient norm :     0.0026730 Eh/α   predicted    -0.7261334E-04 ( -29.61%)
   displ. norm   :     0.2315471 α      lambda       -0.1480011E-03
   maximum displ.:     0.1221595 α      in ANC's #4, #3, #1, ...

........................................................................
.............................. CYCLE    9 ..............................
........................................................................

 iter      E             dE          RMSdq      gap      omega  full diag
   1    -32.0728719 -0.320729E+02  0.852E-02    3.56       0.0  T
   2    -32.0728741 -0.220825E-05  0.477E-02    3.56       1.0  T
   3    -32.0728741 -0.382814E-07  0.821E-03    3.56       2.4  T
   4    -32.0728742 -0.864437E-07  0.251E-03    3.56       7.8  T
   5    -32.0728743 -0.685110E-07  0.696E-04    3.56      28.2  T
   6    -32.0728743 -0.508152E-08  0.350E-04    3.56      56.0  T
   7    -32.0728743 -0.508038E-09  0.936E-05    3.56     209.5  T
   8    -32.0728743 -0.132090E-10  0.310E-05    3.56     632.3  T
   9    -32.0728743 -0.490985E-11  0.126E-05    3.56    1557.0  T
  10    -32.0728743 -0.204636E-11  0.546E-06    3.56    3590.0  T
  11    -32.0728743 -0.177636E-12  0.235E-06    3.56    8333.9  T
     SCC iter.                  ...        0 min,  0.074 sec
     gradient                   ...        0 min,  0.002 sec
 * total energy  :   -31.5520276 Eh     change       -0.1134796E-03 Eh
   gradient norm :     0.0041306 Eh/α   predicted    -0.7797093E-04 ( -31.29%)
   displ. norm   :     0.3180331 α      lambda       -0.1846351E-03
   maximum displ.:     0.2009672 α      in ANC's #4, #3, #1, ...

........................................................................
.............................. CYCLE   10 ..............................
........................................................................

 iter      E             dE          RMSdq      gap      omega  full diag
   1    -32.0726302 -0.320726E+02  0.114E-01    3.56       0.0  T
   2    -32.0726325 -0.233717E-05  0.648E-02    3.56       1.0  T
   3    -32.0726324  0.630022E-07  0.803E-03    3.57       2.4  T
   4    -32.0726325 -0.496515E-07  0.362E-03    3.57       5.4  T
   5    -32.0726327 -0.266947E-06  0.833E-04    3.57      23.5  T
   6    -32.0726327 -0.632451E-08  0.398E-04    3.57      49.3  T
   7    -32.0726327 -0.535394E-10  0.105E-04    3.57     187.0  T
   8    -32.0726327 -0.186105E-09  0.326E-05    3.57     601.5  T
   9    -32.0726327 -0.152980E-10  0.122E-05    3.57    1607.7  T
  10    -32.0726327 -0.348166E-12  0.377E-06    3.57    5200.3  T
  11    -32.0726327 -0.497380E-13  0.111E-06    3.57   17646.2  T
     SCC iter.                  ...        0 min,  0.075 sec
     gradient                   ...        0 min,  0.002 sec
 * total energy  :   -31.5521732 Eh     change       -0.1456183E-03 Eh
   gradient norm :     0.0051506 Eh/α   predicted    -0.1016584E-03 ( -30.19%)
   displ. norm   :     0.2673301 α      lambda       -0.1699406E-03
   maximum displ.:     0.1784321 α      in ANC's #4, #3, #1, ...

........................................................................
.............................. CYCLE   11 ..............................
........................................................................

 iter      E             dE          RMSdq      gap      omega  full diag
   1    -32.0720673 -0.320721E+02  0.926E-02    3.57       0.0  T
   2    -32.0720679 -0.675754E-06  0.539E-02    3.57       1.0  T
   3    -32.0720675  0.424785E-06  0.593E-03    3.57       3.3  T
   4    -32.0720680 -0.471148E-06  0.267E-03    3.57       7.3  T
   5    -32.0720681 -0.127222E-06  0.670E-04    3.57      29.3  T
   6    -32.0720681 -0.351191E-08  0.321E-04    3.57      61.1  T
   7    -32.0720681 -0.138307E-09  0.740E-05    3.57     265.0  T
   8    -32.0720681 -0.696545E-10  0.251E-05    3.57     780.1  T
   9    -32.0720681 -0.476774E-11  0.109E-05    3.57    1791.5  T
  10    -32.0720681 -0.589750E-12  0.334E-06    3.57    5863.0  T
  11    -32.0720681 -0.355271E-13  0.154E-06    3.57   12764.9  T
     SCC iter.                  ...        0 min,  0.074 sec
     gradient                   ...        0 min,  0.002 sec
 * total energy  :   -31.5523204 Eh     change       -0.1471867E-03 Eh
   gradient norm :     0.0045141 Eh/α   predicted    -0.9104337E-04 ( -38.14%)
   displ. norm   :     0.4357378 α      lambda       -0.2870599E-03
   maximum displ.:     0.2881947 α      in ANC's #4, #3, #2, ...

........................................................................
.............................. CYCLE   12 ..............................
........................................................................

 iter      E             dE          RMSdq      gap      omega  full diag
   1    -32.0705140 -0.320705E+02  0.151E-01    3.58       0.0  T
   2    -32.0705153 -0.130724E-05  0.884E-02    3.58       1.0  T
   3    -32.0705142  0.109142E-05  0.102E-02    3.58       1.9  T
   4    -32.0705156 -0.144842E-05  0.283E-03    3.58       6.9  T
   5    -32.0705157 -0.860645E-07  0.128E-03    3.58      15.3  T
   6    -32.0705157 -0.157014E-07  0.498E-04    3.58      39.4  T
   7    -32.0705157 -0.659270E-09  0.120E-04    3.58     163.8  T
   8    -32.0705157 -0.107640E-09  0.459E-05    3.58     427.1  T
   9    -32.0705157 -0.191278E-10  0.195E-05    3.58    1007.7  T
  10    -32.0705157 -0.133582E-11  0.729E-06    3.58    2690.3  T
  11    -32.0705157 -0.547118E-12  0.259E-06    3.58    7569.5  T
     SCC iter.                  ...        0 min,  0.074 sec
     gradient                   ...        0 min,  0.002 sec
 * total energy  :   -31.5525441 Eh     change       -0.2236831E-03 Eh
   gradient norm :     0.0051023 Eh/α   predicted    -0.1707881E-03 ( -23.65%)
   displ. norm   :     0.4465569 α      lambda       -0.2624783E-03
   maximum displ.:     0.2848911 α      in ANC's #4, #3, #2, ...

........................................................................
.............................. CYCLE   13 ..............................
........................................................................

 iter      E             dE          RMSdq      gap      omega  full diag
   1    -32.0689557 -0.320690E+02  0.155E-01    3.59       0.0  T
   2    -32.0689570 -0.130094E-05  0.912E-02    3.59       1.0  T
   3    -32.0689562  0.826451E-06  0.107E-02    3.59       1.8  T
   4    -32.0689575 -0.125016E-05  0.242E-03    3.59       8.1  T
   5    -32.0689575 -0.210657E-07  0.143E-03    3.59      13.7  T
   6    -32.0689575 -0.185256E-07  0.466E-04    3.59      42.1  T
   7    -32.0689575 -0.100816E-08  0.108E-04    3.59     181.4  T
   8    -32.0689575 -0.718430E-10  0.525E-05    3.59     373.9  T
   9    -32.0689575 -0.303331E-10  0.177E-05    3.59    1107.2  T
  10    -32.0689575 -0.959233E-12  0.654E-06    3.59    3000.7  T
  11    -32.0689575 -0.390799E-12  0.269E-06    3.59    7294.0  T
     SCC iter.                  ...        0 min,  0.075 sec
     gradient                   ...        0 min,  0.002 sec
 * total energy  :   -31.5527344 Eh     change       -0.1903559E-03 Eh
   gradient norm :     0.0076578 Eh/α   predicted    -0.1574101E-03 ( -17.31%)
   displ. norm   :     0.3211638 α      lambda       -0.2748965E-03
   maximum displ.:     0.1903184 α      in ANC's #3, #4, #2, ...

........................................................................
.............................. CYCLE   14 ..............................
........................................................................

 iter      E             dE          RMSdq      gap      omega  full diag
   1    -32.0702203 -0.320702E+02  0.114E-01    3.60       0.0  T
   2    -32.0702213 -0.981058E-06  0.664E-02    3.60       1.0  T
   3    -32.0702209  0.425626E-06  0.829E-03    3.60       2.4  T
   4    -32.0702216 -0.669525E-06  0.204E-03    3.60       9.6  T
   5    -32.0702216 -0.149106E-07  0.106E-03    3.60      18.6  T
   6    -32.0702216 -0.137980E-07  0.398E-04    3.60      49.2  T
   7    -32.0702216 -0.161897E-09  0.881E-05    3.60     222.5  T
   8    -32.0702216 -0.101053E-09  0.468E-05    3.60     419.1  T
   9    -32.0702216 -0.285993E-10  0.176E-05    3.60    1116.8  T
  10    -32.0702216 -0.227374E-12  0.797E-06    3.60    2461.4  T
  11    -32.0702216 -0.554223E-12  0.257E-06    3.60    7621.9  T
     SCC iter.                  ...        0 min,  0.074 sec
     gradient                   ...        0 min,  0.002 sec
 * total energy  :   -31.5529516 Eh     change       -0.2171560E-03 Eh
   gradient norm :     0.0078924 Eh/α   predicted    -0.1516318E-03 ( -30.17%)
   displ. norm   :     0.4385214 α      lambda       -0.3912050E-03
   maximum displ.:     0.2595693 α      in ANC's #3, #4, #2, ...

........................................................................
.............................. CYCLE   15 ..............................
........................................................................

 iter      E             dE          RMSdq      gap      omega  full diag
   1    -32.0702009 -0.320702E+02  0.162E-01    3.60       0.0  T
   2    -32.0702025 -0.152502E-05  0.950E-02    3.61       1.0  T
   3    -32.0702020  0.487719E-06  0.110E-02    3.61       1.8  T
   4    -32.0702029 -0.932213E-06  0.234E-03    3.61       8.4  T
   5    -32.0702029  0.431680E-08  0.132E-03    3.61      14.8  T
   6    -32.0702029 -0.187406E-07  0.477E-04    3.61      41.1  T
   7    -32.0702029 -0.590006E-09  0.128E-04    3.61     153.8  T
   8    -32.0702029 -0.487574E-10  0.271E-05    3.61     723.7  T
   9    -32.0702029 -0.297007E-11  0.147E-05    3.61    1329.7  T
  10    -32.0702029 -0.881073E-12  0.537E-06    3.61    3648.7  T
  11    -32.0702029 -0.149214E-12  0.177E-06    3.61   11084.9  T
     SCC iter.                  ...        0 min,  0.074 sec
     gradient                   ...        0 min,  0.002 sec
 * total energy  :   -31.5532617 Eh     change       -0.3101124E-03 Eh
   gradient norm :     0.0075721 Eh/α   predicted    -0.2332236E-03 ( -24.79%)
   displ. norm   :     0.4050709 α      lambda       -0.4496515E-03
   maximum displ.:     0.2230959 α      in ANC's #3, #2, #4, ...

........................................................................
.............................. CYCLE   16 ..............................
........................................................................

 iter      E             dE          RMSdq      gap      omega  full diag
   1    -32.0752453 -0.320752E+02  0.146E-01    3.62       0.0  T
   2    -32.0752465 -0.127921E-05  0.859E-02    3.63       1.0  T
   3    -32.0752462  0.342986E-06  0.771E-03    3.63       2.5  T
   4    -32.0752469 -0.712423E-06  0.226E-03    3.63       8.7  T
   5    -32.0752469 -0.189559E-07  0.112E-03    3.63      17.5  T
   6    -32.0752469 -0.120311E-07  0.457E-04    3.63      42.9  T
   7    -32.0752469 -0.435342E-09  0.149E-04    3.63     131.9  T
   8    -32.0752469 -0.252292E-09  0.456E-05    3.63     429.7  T
   9    -32.0752469  0.483169E-12  0.257E-05    3.63     763.9  T
  10    -32.0752469 -0.645173E-11  0.719E-06    3.63    2726.9  T
  11    -32.0752469 -0.177636E-12  0.292E-06    3.63    6709.3  T
     SCC iter.                  ...        0 min,  0.074 sec
     gradient                   ...        0 min,  0.002 sec
 * total energy  :   -31.5535547 Eh     change       -0.2929728E-03 Eh
   gradient norm :     0.0060165 Eh/α   predicted    -0.2617187E-03 ( -10.67%)
   displ. norm   :     0.7681749 α      lambda       -0.4827347E-03
   maximum displ.:     0.4774204 α      in ANC's #3, #4, #1, ...

........................................................................
.............................. CYCLE   17 ..............................
........................................................................

 iter      E             dE          RMSdq      gap      omega  full diag
   1    -32.0652094 -0.320652E+02  0.284E-01    3.60       0.0  T
   2    -32.0652219 -0.124494E-04  0.165E-01    3.61       1.0  T
   3    -32.0652199  0.195941E-05  0.301E-02    3.61       1.0  T
   4    -32.0652239 -0.395171E-05  0.699E-03    3.61       2.8  T
   5    -32.0652238  0.394332E-07  0.429E-03    3.61       4.6  T
   6    -32.0652240 -0.112621E-06  0.169E-03    3.61      11.6  T
   7    -32.0652240 -0.578506E-08  0.460E-04    3.61      42.6  T
   8    -32.0652240 -0.117956E-08  0.849E-05    3.61     231.0  T
   9    -32.0652240 -0.398259E-10  0.427E-05    3.61     459.8  T
  10    -32.0652240 -0.900258E-11  0.152E-05    3.61    1290.3  T
  11    -32.0652240 -0.682121E-12  0.464E-06    3.61    4228.6  T
  12    -32.0652240 -0.355271E-13  0.132E-06    3.61   14850.5  T
     SCC iter.                  ...        0 min,  0.075 sec
     gradient                   ...        0 min,  0.002 sec
 * total energy  :   -31.5536159 Eh     change       -0.6120085E-04 Eh
   gradient norm :     0.0151947 Eh/α   predicted    -0.3838013E-03 ( 527.12%)
   displ. norm   :     0.1451395 α      lambda       -0.6421765E-03
   maximum displ.:     0.0828979 α      in ANC's #4, #8, #3, ...

........................................................................
.............................. CYCLE   18 ..............................
........................................................................

 iter      E             dE          RMSdq      gap      omega  full diag
   1    -32.0719397 -0.320719E+02  0.817E-02    3.61       0.0  T
   2    -32.0719447 -0.499144E-05  0.403E-02    3.61       1.0  T
   3    -32.0719444  0.232769E-06  0.234E-02    3.61       1.0  T
   4    -32.0719455 -0.105606E-05  0.499E-03    3.61       3.9  T
   5    -32.0719454  0.626104E-07  0.312E-03    3.61       6.3  T
   6    -32.0719455 -0.116570E-06  0.117E-03    3.61      16.8  T
   7    -32.0719456 -0.410139E-08  0.324E-04    3.61      60.6  T
   8    -32.0719456 -0.129319E-09  0.730E-05    3.61     268.8  T
   9    -32.0719456 -0.600195E-10  0.292E-05    3.61     670.5  T
  10    -32.0719456 -0.232347E-11  0.110E-05    3.61    1790.4  T
  11    -32.0719456 -0.111555E-11  0.392E-06    3.61    5000.5  T
  12    -32.0719456 -0.355271E-13  0.147E-06    3.61   13358.2  T
     SCC iter.                  ...        0 min,  0.075 sec
     gradient                   ...        0 min,  0.002 sec
 * total energy  :   -31.5539733 Eh     change       -0.3574664E-03 Eh
   gradient norm :     0.0069573 Eh/α   predicted    -0.3278554E-03 (  -8.28%)
   displ. norm   :     0.2706049 α      lambda       -0.3026980E-03
   maximum displ.:     0.1702036 α      in ANC's #3, #4, #8, ...

........................................................................
.............................. CYCLE   19 ..............................
........................................................................

 iter      E             dE          RMSdq      gap      omega  full diag
   1    -32.0757036 -0.320757E+02  0.893E-02    3.63       0.0  T
   2    -32.0757050 -0.140025E-05  0.520E-02    3.63       1.0  T
   3    -32.0757038  0.114256E-05  0.880E-03    3.63       2.2  T
   4    -32.0757051 -0.129653E-05  0.325E-03    3.63       6.0  T
   5    -32.0757053 -0.174204E-06  0.898E-04    3.63      21.8  T
   6    -32.0757053 -0.906232E-08  0.364E-04    3.63      53.9  T
   7    -32.0757053 -0.219373E-09  0.147E-04    3.63     133.8  T
   8    -32.0757053 -0.207365E-09  0.348E-05    3.63     563.9  T
   9    -32.0757053 -0.112053E-10  0.138E-05    3.63    1419.1  T
  10    -32.0757053 -0.186162E-11  0.563E-06    3.63    3482.5  T
  11    -32.0757053 -0.163425E-12  0.186E-06    3.63   10569.6  T
     SCC iter.                  ...        0 min,  0.074 sec
     gradient                   ...        0 min,  0.002 sec
 * total energy  :   -31.5541970 Eh     change       -0.2237164E-03 Eh
   gradient norm :     0.0049063 Eh/α   predicted    -0.1624347E-03 ( -27.39%)
   displ. norm   :     0.6415668 α      lambda       -0.4084808E-03
   maximum displ.:     0.4043061 α      in ANC's #3, #4, #2, ...

........................................................................
.............................. CYCLE   20 ..............................
........................................................................

 iter      E             dE          RMSdq      gap      omega  full diag
   1    -32.0734256 -0.320734E+02  0.224E-01    3.62       0.0  T
   2    -32.0734304 -0.482354E-05  0.131E-01    3.62       1.0  T
   3    -32.0734271  0.331780E-05  0.152E-02    3.62       1.3  T
   4    -32.0734307 -0.355537E-05  0.691E-03    3.62       2.8  T
   5    -32.0734315 -0.870980E-06  0.167E-03    3.62      11.7  T
   6    -32.0734315 -0.205868E-07  0.932E-04    3.62      21.0  T
   7    -32.0734315 -0.107258E-08  0.211E-04    3.62      93.0  T
   8    -32.0734315 -0.461036E-09  0.552E-05    3.62     355.5  T
   9    -32.0734315 -0.384759E-10  0.251E-05    3.62     782.0  T
  10    -32.0734315 -0.354561E-11  0.107E-05    3.62    1837.3  T
  11    -32.0734315 -0.639488E-12  0.380E-06    3.62    5157.1  T
  12    -32.0734315 -0.710543E-14  0.106E-06    3.62   18570.4  T
     SCC iter.                  ...        0 min,  0.075 sec
     gradient                   ...        0 min,  0.002 sec
 * total energy  :   -31.5545042 Eh     change       -0.3071264E-03 Eh
   gradient norm :     0.0064179 Eh/α   predicted    -0.2883111E-03 (  -6.13%)
   displ. norm   :     0.4719296 α      lambda       -0.2494260E-03
   maximum displ.:     0.2906314 α      in ANC's #3, #4, #2, ...
 * RMSD in coord.:     1.1743183 α      energy gain  -0.2077901E-01 Eh

generating ANC from model Hessian ...
Using Lindh-Hessian (1995)
 Shifting diagonal of input Hessian by   9.175117777743106E-003
 Lowest  eigenvalues of input Hessian
    0.000000    0.000000    0.000000    0.000000    0.000000    0.000000
    0.010000    0.010205    0.010430    0.011170    0.011854    0.012713
    0.015070    0.017192    0.017723    0.019375    0.022481    0.024049
 Highest eigenvalues
    1.357129    1.545397    1.571148    1.875593    1.979269    1.996052
 

........................................................................
.............................. CYCLE   21 ..............................
........................................................................

 iter      E             dE          RMSdq      gap      omega  full diag
   1    -32.0711615 -0.320712E+02  0.170E-01    3.62       0.0  T
   2    -32.0711632 -0.166333E-05  0.100E-01    3.62       1.0  T
   3    -32.0711606  0.258915E-05  0.133E-02    3.62       1.5  T
   4    -32.0711637 -0.311499E-05  0.316E-03    3.62       6.2  T
   5    -32.0711639 -0.151042E-06  0.133E-03    3.62      14.8  T
   6    -32.0711639 -0.145084E-07  0.572E-04    3.62      34.3  T
   7    -32.0711639 -0.463629E-09  0.103E-04    3.62     190.1  T
   8    -32.0711639 -0.451337E-10  0.486E-05    3.62     403.7  T
   9    -32.0711639 -0.275548E-10  0.167E-05    3.62    1173.7  T
  10    -32.0711639 -0.272848E-11  0.478E-06    3.62    4102.4  T
  11    -32.0711639 -0.198952E-12  0.197E-06    3.62    9975.3  T
     SCC iter.                  ...        0 min,  0.074 sec
     gradient                   ...        0 min,  0.002 sec
 * total energy  :   -31.5546669 Eh     change       -0.1626945E-03 Eh
   gradient norm :     0.0071697 Eh/α   predicted     0.0000000E+00 (-100.00%)
   displ. norm   :     0.0613253 α      lambda       -0.1879663E-03
   maximum displ.:     0.0246306 α      in ANC's #1, #3, #4, ...

........................................................................
.............................. CYCLE   22 ..............................
........................................................................

 iter      E             dE          RMSdq      gap      omega  full diag
   1    -32.0749574 -0.320750E+02  0.412E-02    3.63       0.0  T
   2    -32.0749582 -0.753324E-06  0.233E-02    3.63       1.0  T
   3    -32.0749581  0.999342E-07  0.501E-03    3.64       3.9  T
   4    -32.0749583 -0.191272E-06  0.181E-03    3.64      10.9  T
   5    -32.0749583 -0.167039E-07  0.705E-04    3.64      27.8  T
   6    -32.0749583 -0.456363E-08  0.329E-04    3.64      59.7  T
   7    -32.0749583 -0.814140E-09  0.121E-04    3.64     162.6  T
   8    -32.0749583 -0.917098E-10  0.334E-05    3.64     586.3  T
   9    -32.0749583 -0.142180E-10  0.164E-05    3.64    1194.0  T
  10    -32.0749583 -0.127187E-11  0.586E-06    3.64    3345.4  T
  11    -32.0749583 -0.135003E-12  0.253E-06    3.64    7760.5  T
     SCC iter.                  ...        0 min,  0.075 sec
     gradient                   ...        0 min,  0.002 sec
 * total energy  :   -31.5547873 Eh     change       -0.1204444E-03 Eh
   gradient norm :     0.0023613 Eh/α   predicted    -0.9477737E-04 ( -21.31%)
   displ. norm   :     0.0705393 α      lambda       -0.5674826E-04
   maximum displ.:     0.0367444 α      in ANC's #1, #3, #4, ...

........................................................................
.............................. CYCLE   23 ..............................
........................................................................

 iter      E             dE          RMSdq      gap      omega  full diag
   1    -32.0765968 -0.320766E+02  0.303E-02    3.64       0.0  T
   2    -32.0765971 -0.211483E-06  0.177E-02    3.64       1.1  T
   3    -32.0765970  0.330477E-07  0.275E-03    3.64       7.1  T
   4    -32.0765971 -0.622332E-07  0.981E-04    3.64      20.0  T
   5    -32.0765971 -0.760123E-08  0.283E-04    3.64      69.2  T
   6    -32.0765971 -0.618478E-09  0.145E-04    3.64     135.7  T
   7    -32.0765971 -0.863523E-10  0.561E-05    3.64     349.6  T
   8    -32.0765971 -0.115534E-10  0.159E-05    3.64    1233.5  T
   9    -32.0765971 -0.274980E-11  0.806E-06    3.64    2432.6  T
  10    -32.0765971 -0.433431E-12  0.281E-06    3.64    6977.5  T
     SCC iter.                  ...        0 min,  0.077 sec
     gradient                   ...        0 min,  0.002 sec
 * total energy  :   -31.5548278 Eh     change       -0.4043795E-04 Eh
   gradient norm :     0.0011751 Eh/α   predicted    -0.2852831E-04 ( -29.45%)
   displ. norm   :     0.1636585 α      lambda       -0.4902132E-04
   maximum displ.:     0.0876772 α      in ANC's #1, #3, #4, ...

........................................................................
.............................. CYCLE   24 ..............................
........................................................................

 iter      E             dE          RMSdq      gap      omega  full diag
   1    -32.0771883 -0.320772E+02  0.565E-02    3.64       0.0  T
   2    -32.0771886 -0.384668E-06  0.333E-02    3.64       1.0  T
   3    -32.0771885  0.147316E-06  0.520E-03    3.64       3.8  T
   4    -32.0771887 -0.231531E-06  0.110E-03    3.64      17.9  T
   5    -32.0771887 -0.586510E-09  0.552E-04    3.64      35.5  T
   6    -32.0771887 -0.323111E-08  0.238E-04    3.64      82.4  T
   7    -32.0771887 -0.180876E-09  0.580E-05    3.64     338.4  T
   8    -32.0771887 -0.590461E-11  0.241E-05    3.64     815.4  T
   9    -32.0771887 -0.932232E-11  0.114E-05    3.64    1726.9  T
  10    -32.0771887 -0.100897E-11  0.220E-06    3.64    8909.8  T
  11    -32.0771887 -0.710543E-14  0.100E-06    3.64   19519.6  T
     SCC iter.                  ...        0 min,  0.077 sec
     gradient                   ...        0 min,  0.005 sec
 * total energy  :   -31.5548816 Eh     change       -0.5386809E-04 Eh
   gradient norm :     0.0027739 Eh/α   predicted    -0.2486925E-04 ( -53.83%)
   displ. norm   :     0.1451115 α      lambda       -0.5699911E-04
   maximum displ.:     0.0793502 α      in ANC's #1, #3, #2, ...

........................................................................
.............................. CYCLE   25 ..............................
........................................................................

 iter      E             dE          RMSdq      gap      omega  full diag
   1    -32.0765613 -0.320766E+02  0.472E-02    3.64       0.0  T
   2    -32.0765615 -0.205350E-06  0.275E-02    3.64       1.0  T
   3    -32.0765614  0.372530E-07  0.324E-03    3.64       6.0  T
   4    -32.0765615 -0.725885E-07  0.867E-04    3.64      22.6  T
   5    -32.0765615 -0.475951E-08  0.428E-04    3.64      45.8  T
   6    -32.0765615 -0.181703E-08  0.176E-04    3.64     111.2  T
   7    -32.0765615 -0.614477E-10  0.629E-05    3.64     311.7  T
   8    -32.0765615 -0.174154E-10  0.170E-05    3.64    1155.4  T
   9    -32.0765615 -0.569145E-11  0.874E-06    3.64    2243.0  T
  10    -32.0765615 -0.390799E-12  0.319E-06    3.64    6156.2  T
     SCC iter.                  ...        0 min,  0.075 sec
     gradient                   ...        0 min,  0.002 sec
 * total energy  :   -31.5549317 Eh     change       -0.5011758E-04 Eh
   gradient norm :     0.0027248 Eh/α   predicted    -0.2909996E-04 ( -41.94%)
   displ. norm   :     0.2623816 α      lambda       -0.9569022E-04
   maximum displ.:     0.1449076 α      in ANC's #1, #3, #2, ...

........................................................................
.............................. CYCLE   26 ..............................
........................................................................

 iter      E             dE          RMSdq      gap      omega  full diag
   1    -32.0749580 -0.320750E+02  0.839E-02    3.64       0.0  T
   2    -32.0749588 -0.732695E-06  0.491E-02    3.64       1.0  T
   3    -32.0749586  0.126173E-06  0.579E-03    3.64       3.4  T
   4    -32.0749589 -0.233574E-06  0.173E-03    3.64      11.3  T
   5    -32.0749589 -0.205263E-07  0.829E-04    3.64      23.6  T
   6    -32.0749589 -0.717743E-08  0.311E-04    3.64      63.0  T
   7    -32.0749589 -0.181124E-09  0.119E-04    3.64     164.4  T
   8    -32.0749589 -0.678497E-10  0.346E-05    3.64     566.8  T
   9    -32.0749589 -0.192486E-10  0.188E-05    3.64    1044.3  T
  10    -32.0749589 -0.179057E-11  0.465E-06    3.64    4220.7  T
  11    -32.0749589 -0.135003E-12  0.179E-06    3.64   10934.4  T
     SCC iter.                  ...        0 min,  0.076 sec
     gradient                   ...        0 min,  0.002 sec
 * total energy  :   -31.5550043 Eh     change       -0.7260715E-04 Eh
   gradient norm :     0.0029150 Eh/α   predicted    -0.5115057E-04 ( -29.55%)
   displ. norm   :     0.2205691 α      lambda       -0.6508915E-04
   maximum displ.:     0.1277149 α      in ANC's #1, #3, #2, ...

........................................................................
.............................. CYCLE   27 ..............................
........................................................................

 iter      E             dE          RMSdq      gap      omega  full diag
   1    -32.0741793 -0.320742E+02  0.729E-02    3.64       0.0  T
   2    -32.0741798 -0.549521E-06  0.424E-02    3.64       1.0  T
   3    -32.0741798  0.684311E-07  0.429E-03    3.64       4.6  T
   4    -32.0741799 -0.118485E-06  0.174E-03    3.64      11.3  T
   5    -32.0741799 -0.374861E-07  0.669E-04    3.64      29.3  T
   6    -32.0741799 -0.525791E-08  0.237E-04    3.64      82.7  T
   7    -32.0741799  0.410694E-10  0.857E-05    3.64     228.8  T
   8    -32.0741799 -0.917240E-10  0.227E-05    3.64     862.5  T
   9    -32.0741799 -0.723333E-11  0.112E-05    3.64    1746.0  T
  10    -32.0741799 -0.390799E-12  0.357E-06    3.64    5496.5  T
  11    -32.0741799 -0.284217E-13  0.111E-06    3.64   17712.7  T
     SCC iter.                  ...        0 min,  0.078 sec
     gradient                   ...        0 min,  0.002 sec
 * total energy  :   -31.5550547 Eh     change       -0.5034847E-04 Eh
   gradient norm :     0.0032475 Eh/α   predicted    -0.3413180E-04 ( -32.21%)
   displ. norm   :     0.2142614 α      lambda       -0.7288709E-04
   maximum displ.:     0.1292938 α      in ANC's #1, #3, #2, ...

........................................................................
.............................. CYCLE   28 ..............................
........................................................................

 iter      E             dE          RMSdq      gap      omega  full diag
   1    -32.0744293 -0.320744E+02  0.746E-02    3.64       0.0  T
   2    -32.0744299 -0.626411E-06  0.433E-02    3.64       1.0  T
   3    -32.0744298  0.971515E-07  0.431E-03    3.64       4.6  T
   4    -32.0744299 -0.943479E-07  0.229E-03    3.64       8.6  T
   5    -32.0744300 -0.104135E-06  0.598E-04    3.64      32.8  T
   6    -32.0744300 -0.196422E-08  0.257E-04    3.64      76.2  T
   7    -32.0744300  0.365787E-10  0.594E-05    3.64     330.2  T
   8    -32.0744300 -0.649578E-10  0.188E-05    3.64    1043.8  T
   9    -32.0744300 -0.528644E-11  0.769E-06    3.64    2550.3  T
  10    -32.0744300 -0.127898E-12  0.301E-06    3.64    6507.7  T
     SCC iter.                  ...        0 min,  0.075 sec
     gradient                   ...        0 min,  0.002 sec
 * total energy  :   -31.5551138 Eh     change       -0.5913299E-04 Eh
   gradient norm :     0.0029293 Eh/α   predicted    -0.3812051E-04 ( -35.53%)
   displ. norm   :     0.3140633 α      lambda       -0.9850937E-04
   maximum displ.:     0.1891695 α      in ANC's #1, #3, #2, ...

........................................................................
.............................. CYCLE   29 ..............................
........................................................................

 iter      E             dE          RMSdq      gap      omega  full diag
   1    -32.0748431 -0.320748E+02  0.110E-01    3.64       0.0  T
   2    -32.0748443 -0.120734E-05  0.643E-02    3.64       1.0  T
   3    -32.0748442  0.177755E-06  0.590E-03    3.65       3.3  T
   4    -32.0748444 -0.218535E-06  0.300E-03    3.65       6.5  T
   5    -32.0748446 -0.163341E-06  0.833E-04    3.65      23.5  T
   6    -32.0748446 -0.573165E-08  0.345E-04    3.65      56.9  T
   7    -32.0748446  0.530207E-10  0.916E-05    3.65     214.1  T
   8    -32.0748446 -0.156227E-09  0.271E-05    3.65     723.4  T
   9    -32.0748446 -0.107718E-10  0.115E-05    3.65    1706.6  T
  10    -32.0748446 -0.319744E-12  0.373E-06    3.65    5258.3  T
  11    -32.0748446 -0.568434E-13  0.119E-06    3.65   16428.2  T
     SCC iter.                  ...        0 min,  0.076 sec
     gradient                   ...        0 min,  0.002 sec
 * total energy  :   -31.5551939 Eh     change       -0.8005507E-04 Eh
   gradient norm :     0.0033699 Eh/α   predicted    -0.5411511E-04 ( -32.40%)
   displ. norm   :     0.4148636 α      lambda       -0.1209869E-03
   maximum displ.:     0.2503559 α      in ANC's #1, #3, #2, ...

........................................................................
.............................. CYCLE   30 ..............................
........................................................................

 iter      E             dE          RMSdq      gap      omega  full diag
   1    -32.0748164 -0.320748E+02  0.147E-01    3.64       0.0  T
   2    -32.0748181 -0.170964E-05  0.858E-02    3.65       1.0  T
   3    -32.0748177  0.371063E-06  0.766E-03    3.65       2.6  T
   4    -32.0748183 -0.555849E-06  0.338E-03    3.65       5.8  T
   5    -32.0748184 -0.160072E-06  0.114E-03    3.65      17.1  T
   6    -32.0748185 -0.166650E-07  0.486E-04    3.65      40.4  T
   7    -32.0748185 -0.125404E-09  0.104E-04    3.65     187.7  T
   8    -32.0748185 -0.189722E-09  0.368E-05    3.65     533.6  T
   9    -32.0748185 -0.210392E-10  0.151E-05    3.65    1299.5  T
  10    -32.0748185 -0.760281E-12  0.398E-06    3.65    4928.3  T
  11    -32.0748185  0.284217E-13  0.175E-06    3.65   11205.6  T
     SCC iter.                  ...        0 min,  0.076 sec
     gradient                   ...        0 min,  0.002 sec
 * total energy  :   -31.5552929 Eh     change       -0.9902204E-04 Eh
   gradient norm :     0.0040034 Eh/α   predicted    -0.7090652E-04 ( -28.39%)
   displ. norm   :     0.4733230 α      lambda       -0.1425724E-03
   maximum displ.:     0.2853216 α      in ANC's #1, #3, #2, ...

........................................................................
.............................. CYCLE   31 ..............................
........................................................................

 iter      E             dE          RMSdq      gap      omega  full diag
   1    -32.0747283 -0.320747E+02  0.169E-01    3.64       0.0  T
   2    -32.0747302 -0.194311E-05  0.990E-02    3.64       1.0  T
   3    -32.0747297  0.563228E-06  0.906E-03    3.64       2.2  T
   4    -32.0747306 -0.911117E-06  0.332E-03    3.64       5.9  T
   5    -32.0747307 -0.113066E-06  0.133E-03    3.64      14.8  T
   6    -32.0747307 -0.260618E-07  0.587E-04    3.64      33.4  T
   7    -32.0747307 -0.393108E-09  0.990E-05    3.64     198.0  T
   8    -32.0747307 -0.168427E-09  0.401E-05    3.64     488.6  T
   9    -32.0747307 -0.248264E-10  0.156E-05    3.64    1254.8  T
  10    -32.0747307 -0.902389E-12  0.399E-06    3.64    4914.8  T
  11    -32.0747307  0.213163E-13  0.178E-06    3.64   11001.6  T
     SCC iter.                  ...        0 min,  0.075 sec
     gradient                   ...        0 min,  0.002 sec
 * total energy  :   -31.5554057 Eh     change       -0.1128275E-03 Eh
   gradient norm :     0.0039235 Eh/α   predicted    -0.8725900E-04 ( -22.66%)
   displ. norm   :     0.4411191 α      lambda       -0.1329867E-03
   maximum displ.:     0.2626611 α      in ANC's #1, #2, #3, ...

........................................................................
.............................. CYCLE   32 ..............................
........................................................................

 iter      E             dE          RMSdq      gap      omega  full diag
   1    -32.0746663 -0.320747E+02  0.157E-01    3.64       0.0  T
   2    -32.0746679 -0.159689E-05  0.921E-02    3.64       1.0  T
   3    -32.0746674  0.507039E-06  0.936E-03    3.64       2.1  T
   4    -32.0746683 -0.893775E-06  0.253E-03    3.64       7.8  T
   5    -32.0746683 -0.253947E-07  0.125E-03    3.64      15.6  T
   6    -32.0746684 -0.224139E-07  0.568E-04    3.64      34.5  T
   7    -32.0746684 -0.704077E-09  0.130E-04    3.64     150.6  T
   8    -32.0746684 -0.134982E-09  0.426E-05    3.64     460.8  T
   9    -32.0746684 -0.315481E-10  0.197E-05    3.64     995.1  T
  10    -32.0746684 -0.229505E-11  0.345E-06    3.64    5686.0  T
  11    -32.0746684  0.710543E-14  0.166E-06    3.64   11786.5  T
     SCC iter.                  ...        0 min,  0.075 sec
     gradient                   ...        0 min,  0.002 sec
 * total energy  :   -31.5555089 Eh     change       -0.1031699E-03 Eh
   gradient norm :     0.0031141 Eh/α   predicted    -0.7943710E-04 ( -23.00%)
   displ. norm   :     0.3318176 α      lambda       -0.1277532E-03
   maximum displ.:     0.1961174 α      in ANC's #2, #1, #3, ...

........................................................................
.............................. CYCLE   33 ..............................
........................................................................

 iter      E             dE          RMSdq      gap      omega  full diag
   1    -32.0779089 -0.320779E+02  0.119E-01    3.64       0.0  T
   2    -32.0779098 -0.868337E-06  0.701E-02    3.64       1.0  T
   3    -32.0779094  0.411148E-06  0.697E-03    3.65       2.8  T
   4    -32.0779100 -0.675105E-06  0.179E-03    3.65      11.0  T
   5    -32.0779100 -0.183976E-07  0.926E-04    3.65      21.2  T
   6    -32.0779101 -0.916828E-08  0.384E-04    3.65      51.1  T
   7    -32.0779101 -0.350319E-09  0.108E-04    3.65     182.2  T
   8    -32.0779101 -0.354277E-10  0.385E-05    3.65     509.7  T
   9    -32.0779101 -0.266382E-10  0.119E-05    3.65    1649.3  T
  10    -32.0779101 -0.603961E-12  0.388E-06    3.65    5054.7  T
  11    -32.0779101 -0.255795E-12  0.143E-06    3.65   13703.5  T
     SCC iter.                  ...        0 min,  0.076 sec
     gradient                   ...        0 min,  0.002 sec
 * total energy  :   -31.5555798 Eh     change       -0.7092897E-04 Eh
   gradient norm :     0.0043076 Eh/α   predicted    -0.7091239E-04 (  -0.02%)
   displ. norm   :     0.6539001 α      lambda       -0.1946616E-03
   maximum displ.:     0.3891786 α      in ANC's #1, #2, #3, ...

........................................................................
.............................. CYCLE   34 ..............................
........................................................................

 iter      E             dE          RMSdq      gap      omega  full diag
   1    -32.0709561 -0.320710E+02  0.234E-01    3.62       0.0  T
   2    -32.0709627 -0.655329E-05  0.138E-01    3.63       1.0  T
   3    -32.0709615  0.118241E-05  0.195E-02    3.63       1.0  T
   4    -32.0709638 -0.234971E-05  0.405E-03    3.63       4.8  T
   5    -32.0709639 -0.920785E-09  0.250E-03    3.63       7.8  T
   6    -32.0709639 -0.307347E-07  0.823E-04    3.63      23.8  T
   7    -32.0709639 -0.458239E-08  0.333E-04    3.63      58.9  T
   8    -32.0709639 -0.151687E-09  0.946E-05    3.63     207.2  T
   9    -32.0709639 -0.637783E-10  0.354E-05    3.63     554.1  T
  10    -32.0709639 -0.463984E-11  0.103E-05    3.63    1910.2  T
  11    -32.0709639 -0.132161E-11  0.415E-06    3.63    4727.0  T
  12    -32.0709639 -0.852651E-13  0.156E-06    3.63   12558.1  T
     SCC iter.                  ...        0 min,  0.075 sec
     gradient                   ...        0 min,  0.002 sec
 * total energy  :   -31.5556025 Eh     change       -0.2263043E-04 Eh
   gradient norm :     0.0080448 Eh/α   predicted    -0.1389547E-03 ( 514.02%)
   displ. norm   :     0.2263598 α      lambda       -0.1850314E-03
   maximum displ.:     0.1342852 α      in ANC's #1, #3, #2, ...

........................................................................
.............................. CYCLE   35 ..............................
........................................................................

 iter      E             dE          RMSdq      gap      omega  full diag
   1    -32.0769558 -0.320770E+02  0.814E-02    3.65       0.0  T
   2    -32.0769572 -0.141728E-05  0.477E-02    3.65       1.0  T
   3    -32.0769569  0.339684E-06  0.836E-03    3.65       2.3  T
   4    -32.0769574 -0.560801E-06  0.198E-03    3.65       9.9  T
   5    -32.0769574 -0.261434E-08  0.976E-04    3.65      20.1  T
   6    -32.0769574 -0.423841E-08  0.341E-04    3.65      57.5  T
   7    -32.0769574 -0.289965E-09  0.134E-04    3.65     146.5  T
   8    -32.0769574 -0.149967E-09  0.395E-05    3.65     496.9  T
   9    -32.0769574 -0.254730E-10  0.212E-05    3.65     923.3  T
  10    -32.0769574 -0.237321E-11  0.417E-06    3.65    4708.3  T
  11    -32.0769574 -0.156319E-12  0.199E-06    3.65    9867.1  T
     SCC iter.                  ...        0 min,  0.076 sec
     gradient                   ...        0 min,  0.002 sec
 * total energy  :   -31.5556937 Eh     change       -0.9127579E-04 Eh
   gradient norm :     0.0030293 Eh/α   predicted    -0.9725959E-04 (   6.56%)
   displ. norm   :     0.2052339 α      lambda       -0.8466392E-04
   maximum displ.:     0.1355067 α      in ANC's #2, #1, #3, ...

........................................................................
.............................. CYCLE   36 ..............................
........................................................................

 iter      E             dE          RMSdq      gap      omega  full diag
   1    -32.0770857 -0.320771E+02  0.797E-02    3.64       0.0  T
   2    -32.0770867 -0.101265E-05  0.461E-02    3.64       1.0  T
   3    -32.0770867 -0.508061E-07  0.423E-03    3.64       4.6  T
   4    -32.0770868 -0.602159E-07  0.149E-03    3.64      13.1  T
   5    -32.0770868 -0.957414E-08  0.846E-04    3.64      23.2  T
   6    -32.0770868 -0.814908E-08  0.327E-04    3.64      59.9  T
   7    -32.0770868 -0.321464E-09  0.122E-04    3.64     160.4  T
   8    -32.0770868 -0.192657E-09  0.267E-05    3.64     733.9  T
   9    -32.0770868 -0.299138E-11  0.144E-05    3.64    1357.6  T
  10    -32.0770868 -0.333955E-12  0.462E-06    3.64    4243.0  T
  11    -32.0770868 -0.312639E-12  0.141E-06    3.64   13887.9  T
     SCC iter.                  ...        0 min,  0.076 sec
     gradient                   ...        0 min,  0.002 sec
 * total energy  :   -31.5557326 Eh     change       -0.3890685E-04 Eh
   gradient norm :     0.0043814 Eh/α   predicted    -0.4411730E-04 (  13.39%)
   displ. norm   :     0.2352967 α      lambda       -0.7778921E-04
   maximum displ.:     0.1605131 α      in ANC's #2, #1, #3, ...

........................................................................
.............................. CYCLE   37 ..............................
........................................................................

 iter      E             dE          RMSdq      gap      omega  full diag
   1    -32.0771336 -0.320771E+02  0.821E-02    3.64       0.0  T
   2    -32.0771342 -0.586991E-06  0.484E-02    3.64       1.0  T
   3    -32.0771341  0.101208E-06  0.478E-03    3.64       4.1  T
   4    -32.0771343 -0.200072E-06  0.140E-03    3.64      14.0  T
   5    -32.0771343 -0.180209E-07  0.803E-04    3.64      24.4  T
   6    -32.0771343 -0.952697E-08  0.291E-04    3.64      67.4  T
   7    -32.0771343 -0.300481E-09  0.977E-05    3.64     200.7  T
   8    -32.0771343 -0.112763E-10  0.453E-05    3.64     433.2  T
   9    -32.0771343 -0.178630E-10  0.183E-05    3.64    1069.1  T
  10    -32.0771343 -0.895284E-12  0.463E-06    3.64    4233.1  T
  11    -32.0771343 -0.568434E-13  0.193E-06    3.64   10184.9  T
     SCC iter.                  ...        0 min,  0.075 sec
     gradient                   ...        0 min,  0.002 sec
 * total energy  :   -31.5557945 Eh     change       -0.6182270E-04 Eh
   gradient norm :     0.0027861 Eh/α   predicted    -0.4105282E-04 ( -33.60%)
   displ. norm   :     0.3349168 α      lambda       -0.7089814E-04
   maximum displ.:     0.2343381 α      in ANC's #2, #1, #3, ...

........................................................................
.............................. CYCLE   38 ..............................
........................................................................

 iter      E             dE          RMSdq      gap      omega  full diag
   1    -32.0761590 -0.320762E+02  0.117E-01    3.64       0.0  T
   2    -32.0761601 -0.107240E-05  0.687E-02    3.64       1.0  T
   3    -32.0761598  0.285812E-06  0.732E-03    3.64       2.7  T
   4    -32.0761603 -0.495554E-06  0.192E-03    3.64      10.2  T
   5    -32.0761603 -0.299578E-07  0.119E-03    3.64      16.5  T
   6    -32.0761603 -0.218785E-07  0.428E-04    3.64      45.8  T
   7    -32.0761603 -0.547978E-09  0.137E-04    3.64     143.3  T
   8    -32.0761603 -0.207763E-10  0.564E-05    3.64     347.6  T
   9    -32.0761603 -0.286704E-10  0.243E-05    3.64     806.2  T
  10    -32.0761603 -0.181188E-11  0.553E-06    3.64    3543.8  T
  11    -32.0761603 -0.106581E-12  0.245E-06    3.64    7991.1  T
     SCC iter.                  ...        0 min,  0.075 sec
     gradient                   ...        0 min,  0.002 sec
 * total energy  :   -31.5558356 Eh     change       -0.4114499E-04 Eh
   gradient norm :     0.0018173 Eh/α   predicted    -0.3943130E-04 (  -4.17%)
   displ. norm   :     0.0938540 α      lambda       -0.1907845E-04
   maximum displ.:     0.0699829 α      in ANC's #2, #5, #9, ...

........................................................................
.............................. CYCLE   39 ..............................
........................................................................

 iter      E             dE          RMSdq      gap      omega  full diag
   1    -32.0781809 -0.320782E+02  0.295E-02    3.65       0.0  T
   2    -32.0781811 -0.203629E-06  0.175E-02    3.65       1.1  T
   3    -32.0781809  0.178135E-06  0.331E-03    3.65       5.9  T
   4    -32.0781811 -0.213263E-06  0.912E-04    3.65      21.5  T
   5    -32.0781812 -0.151935E-07  0.357E-04    3.65      55.0  T
   6    -32.0781812 -0.128857E-08  0.166E-04    3.65     118.2  T
   7    -32.0781812 -0.182879E-09  0.675E-05    3.65     290.6  T
   8    -32.0781812 -0.773781E-11  0.214E-05    3.65     915.9  T
   9    -32.0781812 -0.405720E-11  0.846E-06    3.65    2318.4  T
  10    -32.0781812 -0.326850E-12  0.364E-06    3.65    5394.1  T
     SCC iter.                  ...        0 min,  0.075 sec
     gradient                   ...        0 min,  0.002 sec
 * total energy  :   -31.5558470 Eh     change       -0.1137090E-04 Eh
   gradient norm :     0.0019685 Eh/α   predicted    -0.9579719E-05 ( -15.75%)
   displ. norm   :     0.2009872 α      lambda       -0.1813873E-04
   maximum displ.:     0.1466920 α      in ANC's #2, #1, #3, ...

........................................................................
.............................. CYCLE   40 ..............................
........................................................................

 iter      E             dE          RMSdq      gap      omega  full diag
   1    -32.0772418 -0.320772E+02  0.728E-02    3.64       0.0  T
   2    -32.0772422 -0.362217E-06  0.427E-02    3.64       1.0  T
   3    -32.0772421  0.373997E-07  0.361E-03    3.64       5.4  T
   4    -32.0772423 -0.128320E-06  0.111E-03    3.64      17.7  T
   5    -32.0772423 -0.599344E-08  0.485E-04    3.64      40.4  T
   6    -32.0772423 -0.232234E-08  0.236E-04    3.64      83.0  T
   7    -32.0772423 -0.302244E-09  0.581E-05    3.64     337.4  T
   8    -32.0772423 -0.834888E-11  0.190E-05    3.64    1031.2  T
   9    -32.0772423 -0.506617E-11  0.784E-06    3.64    2501.4  T
  10    -32.0772423 -0.710543E-12  0.215E-06    3.64    9105.4  T
     SCC iter.                  ...        0 min,  0.074 sec
     gradient                   ...        0 min,  0.002 sec
 * total energy  :   -31.5558613 Eh     change       -0.1433389E-04 Eh
   gradient norm :     0.0017664 Eh/α   predicted    -0.9232710E-05 ( -35.59%)
   displ. norm   :     0.0643870 α      lambda       -0.1755539E-04
   maximum displ.:     0.0405478 α      in ANC's #4, #5, #3, ...

........................................................................
.............................. CYCLE   41 ..............................
........................................................................

 iter      E             dE          RMSdq      gap      omega  full diag
   1    -32.0776924 -0.320777E+02  0.251E-02    3.64       0.0  T
   2    -32.0776926 -0.183706E-06  0.148E-02    3.64       1.3  T
   3    -32.0776925  0.371950E-07  0.302E-03    3.64       6.5  T
   4    -32.0776926 -0.676054E-07  0.668E-04    3.64      29.4  T
   5    -32.0776926 -0.493969E-09  0.371E-04    3.64      52.8  T
   6    -32.0776926 -0.733152E-09  0.170E-04    3.64     115.3  T
   7    -32.0776926 -0.240739E-09  0.666E-05    3.64     294.7  T
   8    -32.0776926 -0.576961E-11  0.223E-05    3.64     877.6  T
   9    -32.0776926 -0.613198E-11  0.818E-06    3.64    2398.3  T
  10    -32.0776926 -0.923706E-13  0.234E-06    3.64    8370.0  T
     SCC iter.                  ...        0 min,  0.075 sec
     gradient                   ...        0 min,  0.002 sec
 * total energy  :   -31.5558758 Eh     change       -0.1443770E-04 Eh
   gradient norm :     0.0021835 Eh/α   predicted    -0.8798512E-05 ( -39.06%)
   displ. norm   :     0.0657440 α      lambda       -0.1940378E-04
   maximum displ.:     0.0436829 α      in ANC's #4, #2, #3, ...

........................................................................
.............................. CYCLE   42 ..............................
........................................................................

 iter      E             dE          RMSdq      gap      omega  full diag
   1    -32.0778382 -0.320778E+02  0.249E-02    3.64       0.0  T
   2    -32.0778383 -0.712346E-07  0.146E-02    3.64       1.3  T
   3    -32.0778383  0.752989E-08  0.134E-03    3.64      14.7  T
   4    -32.0778383 -0.192081E-07  0.491E-04    3.64      39.9  T
   5    -32.0778383 -0.175354E-08  0.177E-04    3.64     110.7  T
   6    -32.0778383 -0.107477E-09  0.951E-05    3.64     206.2  T
   7    -32.0778383 -0.395062E-10  0.405E-05    3.64     484.7  T
   8    -32.0778383 -0.850520E-11  0.859E-06    3.64    2283.7  T
   9    -32.0778383 -0.866862E-12  0.488E-06    3.64    4016.3  T
     SCC iter.                  ...        0 min,  0.074 sec
     gradient                   ...        0 min,  0.002 sec
 * total energy  :   -31.5558894 Eh     change       -0.1368554E-04 Eh
   gradient norm :     0.0017905 Eh/α   predicted    -0.9746755E-05 ( -28.78%)
   displ. norm   :     0.1806384 α      lambda       -0.2277745E-04
   maximum displ.:     0.1057057 α      in ANC's #2, #4, #3, ...
 * RMSD in coord.:     0.8497778 α      energy gain  -0.1385263E-02 Eh

generating ANC from model Hessian ...
Using Lindh-Hessian (1995)
 Shifting diagonal of input Hessian by   9.247228415184534E-003
 Lowest  eigenvalues of input Hessian
    0.000000    0.000000    0.000000    0.000000    0.000000    0.000000
    0.010000    0.010279    0.010800    0.011291    0.012178    0.013024
    0.015073    0.017757    0.018234    0.019621    0.024235    0.024411
 Highest eigenvalues
    1.365210    1.552892    1.577463    1.881625    1.988790    2.006715
 

........................................................................
.............................. CYCLE   43 ..............................
........................................................................

 iter      E             dE          RMSdq      gap      omega  full diag
   1    -32.0774461 -0.320774E+02  0.641E-02    3.64       0.0  T
   2    -32.0774465 -0.390382E-06  0.377E-02    3.64       1.0  T
   3    -32.0774465  0.236437E-07  0.349E-03    3.64       5.6  T
   4    -32.0774466 -0.952338E-07  0.105E-03    3.64      18.7  T
   5    -32.0774466 -0.654169E-08  0.539E-04    3.64      36.4  T
   6    -32.0774466 -0.349556E-08  0.262E-04    3.64      74.9  T
   7    -32.0774466 -0.342403E-09  0.820E-05    3.64     239.1  T
   8    -32.0774466 -0.127613E-10  0.283E-05    3.64     692.1  T
   9    -32.0774466 -0.691358E-11  0.118E-05    3.64    1660.9  T
  10    -32.0774466 -0.447642E-12  0.232E-06    3.64    8467.9  T
  11    -32.0774466  0.000000E+00  0.102E-06    3.64   19202.3  T
     SCC iter.                  ...        0 min,  0.075 sec
     gradient                   ...        0 min,  0.002 sec
 * total energy  :   -31.5559035 Eh     change       -0.1405391E-04 Eh
   gradient norm :     0.0023856 Eh/α   predicted     0.0000000E+00 (-100.00%)
   displ. norm   :     0.0199916 α      lambda       -0.5675547E-05
   maximum displ.:     0.0100451 α      in ANC's #6, #3, #9, ...

........................................................................
.............................. CYCLE   44 ..............................
........................................................................

 iter      E             dE          RMSdq      gap      omega  full diag
   1    -32.0772228 -0.320772E+02  0.108E-02    3.64       0.0  T
   2    -32.0772228 -0.514045E-07  0.612E-03    3.64       3.2  T
   3    -32.0772228  0.766824E-08  0.126E-03    3.64      15.5  T
   4    -32.0772228 -0.147909E-07  0.427E-04    3.64      45.9  T
   5    -32.0772228 -0.847351E-09  0.177E-04    3.64     110.9  T
   6    -32.0772228 -0.386393E-09  0.902E-05    3.64     217.3  T
   7    -32.0772228 -0.129603E-10  0.331E-05    3.64     591.8  T
   8    -32.0772228 -0.704148E-11  0.699E-06    3.64    2805.1  T
   9    -32.0772228 -0.781597E-12  0.266E-06    3.64    7367.4  T
     SCC iter.                  ...        0 min,  0.074 sec
     gradient                   ...        0 min,  0.002 sec
 * total energy  :   -31.5559135 Eh     change       -0.1000181E-04 Eh
   gradient norm :     0.0007851 Eh/α   predicted    -0.7321027E-05 ( -26.80%)
   displ. norm   :     0.0389355 α      lambda       -0.6524907E-05
   maximum displ.:     0.0225646 α      in ANC's #3, #6, #9, ...

........................................................................
.............................. CYCLE   45 ..............................
........................................................................

 iter      E             dE          RMSdq      gap      omega  full diag
   1    -32.0770384 -0.320770E+02  0.140E-02    3.64       0.0  T
   2    -32.0770385 -0.471365E-07  0.807E-03    3.64       2.4  T
   3    -32.0770385  0.702492E-08  0.119E-03    3.64      16.5  T
   4    -32.0770385 -0.124443E-07  0.419E-04    3.64      46.8  T
   5    -32.0770385 -0.127390E-08  0.167E-04    3.64     117.4  T
   6    -32.0770385 -0.377227E-09  0.695E-05    3.64     282.3  T
   7    -32.0770385 -0.161933E-10  0.292E-05    3.64     671.6  T
   8    -32.0770385 -0.686384E-11  0.911E-06    3.64    2152.6  T
   9    -32.0770385 -0.746070E-12  0.391E-06    3.64    5014.8  T
     SCC iter.                  ...        0 min,  0.074 sec
     gradient                   ...        0 min,  0.002 sec
 * total energy  :   -31.5559177 Eh     change       -0.4190646E-05 Eh
   gradient norm :     0.0009931 Eh/α   predicted    -0.3265445E-05 ( -22.08%)
   displ. norm   :     0.0148609 α      lambda       -0.1811788E-05
   maximum displ.:     0.0119391 α      in ANC's #3, #1, #9, ...

........................................................................
.............................. CYCLE   46 ..............................
........................................................................

 iter      E             dE          RMSdq      gap      omega  full diag
   1    -32.0772033 -0.320772E+02  0.585E-03    3.64       0.0  T
   2    -32.0772033 -0.242657E-07  0.308E-03    3.64       6.4  T
   3    -32.0772033 -0.125771E-08  0.836E-04    3.64      23.5  T
   4    -32.0772033  0.444516E-10  0.340E-04    3.64      57.7  T
   5    -32.0772033 -0.182612E-08  0.926E-05    3.64     211.7  T
   6    -32.0772033 -0.817266E-10  0.335E-05    3.64     585.1  T
   7    -32.0772033 -0.594014E-11  0.168E-05    3.64    1169.0  T
   8    -32.0772033 -0.122924E-11  0.416E-06    3.64    4715.8  T
   9    -32.0772033 -0.142109E-12  0.168E-06    3.64   11644.4  T
     SCC iter.                  ...        0 min,  0.074 sec
[...]

           ------------------------------------------------- 
          |                Numerical Hessian                |
           ------------------------------------------------- 
step length          :   0.00500
SCC accuracy         :   0.30000
Hessian scale factor :   1.00000
frozen atoms in %    :   0.00000    0
RMS gradient         :   0.00002
estimated CPU  time      1.13 min
estimated wall time      0.14 min

writing file <hessian>.

 projected vibrational frequencies (cm⁻¹)
eigval :       -0.00    -0.00    -0.00    -0.00     0.00     0.00
eigval :       27.33    70.43    81.71   127.25   129.52   199.80
eigval :      204.30   227.99   261.51   277.18   283.86   356.98
eigval :      363.05   406.36   472.96   585.99   638.35   657.07
eigval :      683.09   704.68   729.48   746.91   791.30   871.10
eigval :      894.42   925.08   931.15   968.60   974.44   998.54
eigval :     1012.45  1021.91  1065.62  1072.95  1085.90  1115.63
eigval :     1123.35  1181.90  1203.35  1225.76  1227.83  1251.15
eigval :     1266.81  1282.36  1316.94  1408.54  1410.74  1421.69
eigval :     1450.99  1455.20  1462.07  1497.27  1501.00  1504.94
eigval :     1508.43  1577.46  1589.09  2938.93  2942.43  2949.32
eigval :     2960.83  3011.43  3013.27  3024.00  3024.74  3034.33
eigval :     3039.06  3058.87  3068.37  3074.75  3087.06  3094.12
           -------------------------------------------------
          |                Property Printout                |
           -------------------------------------------------

    * Orbital Energies and Occupations

         #    Occupation            Energy/Eh            Energy/eV
      -------------------------------------------------------------
         1        2.0000           -0.6587520             -17.9256
       ...           ...                  ...                  ...
        18        2.0000           -0.4770487             -12.9812
        19        2.0000           -0.4739949             -12.8981
        20        2.0000           -0.4690196             -12.7627
        21        2.0000           -0.4616349             -12.5617
        22        2.0000           -0.4527112             -12.3189
        23        2.0000           -0.4451238             -12.1124
        24        2.0000           -0.4393736             -11.9560
        25        2.0000           -0.4246950             -11.5565
        26        2.0000           -0.4143523             -11.2751
        27        2.0000           -0.4078367             -11.0978
        28        2.0000           -0.4028003             -10.9608
        29        2.0000           -0.4007044             -10.9037
        30        2.0000           -0.3635313              -9.8922 (HOMO)
        31                         -0.2298623              -6.2549 (LUMO)
        32                         -0.2215288              -6.0281
        33                         -0.1545106              -4.2044
        34                         -0.1498751              -4.0783
        35                         -0.0933336              -2.5397
        36                          0.0107887               0.2936
        37                          0.0439363               1.1956
        38                          0.1058820               2.8812
        39                          0.1122452               3.0543
        40                          0.1165334               3.1710
        41                          0.1319446               3.5904
       ...                                ...                  ...
        64                          0.7998956              21.7663
      -------------------------------------------------------------
                  HL-Gap            0.1336690 Eh            3.6373 eV
             Fermi-level           -0.2966968 Eh           -8.0735 eV

     #   Z          covCN         q      C6AA      α(0)
     1  15 P        3.019    -0.113   165.363    23.101
     2   6 C        3.748    -0.044    21.428     6.602
     3   1 H        0.926     0.042     2.424     2.435
     4   1 H        0.926     0.041     2.438     2.442
     5   6 C        3.780    -0.094    22.320     6.730
     6   1 H        0.925     0.037     2.483     2.464
     7   1 H        0.925     0.038     2.479     2.462
     8   1 H        0.925     0.032     2.560     2.502
     9   6 C        2.915     0.010    27.791     8.645
    10   6 C        2.961    -0.034    28.833     8.807
    11   6 C        3.020    -0.030    28.727     8.792
    12   6 C        2.919    -0.031    28.767     8.795
    13   6 C        2.918    -0.030    28.754     8.793
    14   6 C        2.920    -0.031    28.777     8.797
    15   1 H        0.926     0.033     2.549     2.497
    16   1 H        0.925     0.034     2.532     2.489
    17   1 H        0.926     0.028     2.617     2.530
    18   1 H        0.926     0.029     2.604     2.523
    19   1 H        0.926     0.028     2.611     2.527
    20   6 C        3.748    -0.045    21.450     6.606
    21   1 H        0.926     0.041     2.441     2.443
    22   1 H        0.925     0.047     2.362     2.403
    23   6 C        3.818    -0.097    22.332     6.726
    24   1 H        0.925     0.041     2.431     2.438
    25   1 H        0.925     0.037     2.488     2.467
    26   1 H        0.925     0.032     2.556     2.500

 Mol. C6AA /au·bohr⁶  :       7601.150966
 Mol. C8AA /au·bohr⁸  :     202606.567172
 Mol. α(0) /au        :        139.517400


Wiberg/Mayer (AO) data.
largest (>0.10) Wiberg bond orders for each atom

 ---------------------------------------------------------------------------
     #   Z sym  total        # sym  WBO       # sym  WBO       # sym  WBO
 ---------------------------------------------------------------------------
     1  15 P    3.378 --    20 C    1.027     9 C    1.019     2 C    1.014
     2   6 C    3.994 --     1 P    1.014     5 C    1.012     4 H    0.956
                             3 H    0.954
     3   1 H    0.998 --     2 C    0.954
     4   1 H    0.998 --     2 C    0.956
     5   6 C    3.997 --     2 C    1.012     7 H    0.984     8 H    0.983
                             6 H    0.983
     6   1 H    0.999 --     5 C    0.983
     7   1 H    0.999 --     5 C    0.984
     8   1 H    0.999 --     5 C    0.983
     9   6 C    3.982 --    10 C    1.402    11 C    1.390     1 P    1.019
                            14 C    0.106
    10   6 C    3.993 --    12 C    1.441     9 C    1.402    15 H    0.963
                            13 C    0.107
    11   6 C    3.992 --    13 C    1.457     9 C    1.390    16 H    0.962
                            12 C    0.110
    12   6 C    3.993 --    14 C    1.441    10 C    1.441    17 H    0.970
                            11 C    0.110
    13   6 C    3.992 --    11 C    1.457    14 C    1.428    18 H    0.970
                            10 C    0.107
    14   6 C    3.991 --    12 C    1.441    13 C    1.428    19 H    0.971
                             9 C    0.106
    15   1 H    0.999 --    10 C    0.963
    16   1 H    0.999 --    11 C    0.962
    17   1 H    0.999 --    12 C    0.970
    18   1 H    0.999 --    13 C    0.970
    19   1 H    0.998 --    14 C    0.971
    20   6 C    3.995 --     1 P    1.027    23 C    1.015    21 H    0.956
                            22 H    0.951
    21   1 H    0.998 --    20 C    0.956
    22   1 H    0.998 --    20 C    0.951
    23   6 C    3.996 --    20 C    1.015    26 H    0.985    24 H    0.984
                            25 H    0.984
    24   1 H    0.998 --    23 C    0.984
    25   1 H    0.999 --    23 C    0.984
    26   1 H    0.999 --    23 C    0.985
 ---------------------------------------------------------------------------

Topologies differ in total number of bonds
Writing topology from bond orders to xtbtopo.mol

molecular dipole:
                 x           y           z       tot (Debye)
 q only:        0.045      -0.330       0.106
   full:        0.103      -0.497       0.427       1.686
molecular quadrupole (traceless):
                xx          xy          yy          xz          yz          zz
 q only:        2.257      -2.519      -0.325       0.225       3.396      -1.932
  q+dip:        6.945      -4.530      -0.980       2.380       7.611      -5.965
   full:        5.861      -3.671       0.566       1.676       6.566      -6.427

           -------------------------------------------------
          |                Geometry Summary                 |
           -------------------------------------------------

      molecular mass/u    :      166.2002322
   center of mass at/Å    :        2.1843583       0.4849206      -1.6842448
  moments of inertia/u·Å² :        0.2863776E+03   0.8234895E+03   0.9296205E+03
rotational constants/cm⁻¹ :        0.5886505E-01   0.2047098E-01   0.1813389E-01

 * 24 selected distances

     #   Z          #   Z                                           value/Å
     2   6 C        3   1 H                                       1.0934577
     2   6 C        4   1 H                                       1.0934653
     2   6 C        5   6 C                                       1.5222156
     5   6 C        6   1 H                                       1.0887815
     5   6 C        7   1 H                                       1.0872240
     5   6 C        8   1 H                                       1.0891477
     9   6 C       10   6 C                                       1.3898297
     9   6 C       11   6 C                                       1.3938407
    10   6 C       12   6 C                                       1.3845329
    11   6 C       13   6 C                                       1.3809764
    12   6 C       14   6 C                                       1.3835639
    13   6 C       14   6 C                                       1.3855922
    10   6 C       15   1 H                                       1.0792832 (min)
    11   6 C       16   1 H                                       1.0816364
    12   6 C       17   1 H                                       1.0808602
    13   6 C       18   1 H                                       1.0806352
    14   6 C       19   1 H                                       1.0801491
     1  15 P       20   6 C                                       1.8646555 (max)
    20   6 C       21   1 H                                       1.0940371
    20   6 C       22   1 H                                       1.0924721
    20   6 C       23   6 C                                       1.5234145
    23   6 C       24   1 H                                       1.0885082
    23   6 C       25   1 H                                       1.0877604
    23   6 C       26   1 H                                       1.0890274

 * 3 distinct bonds (by element types)

   Z      Z             #   av. dist./Å        max./Å        min./Å
   1 H    6 C          15     1.0870964     1.0940371     1.0792832
   6 C    6 C           8     1.4204958     1.5234145     1.3809764
   6 C   15 P           1     1.8646555     1.8646555     1.8646555

           -------------------------------------------------
          |               Frequency Printout                |
           -------------------------------------------------
 projected vibrational frequencies (cm⁻¹)
eigval :       -0.00    -0.00    -0.00    -0.00     0.00     0.00
eigval :       27.33    70.43    81.71   127.25   129.52   199.80
eigval :      204.30   227.99   261.51   277.18   283.86   356.98
eigval :      363.05   406.36   472.96   585.99   638.35   657.07
eigval :      683.09   704.68   729.48   746.91   791.30   871.10
eigval :      894.42   925.08   931.15   968.60   974.44   998.54
eigval :     1012.45  1021.91  1065.62  1072.95  1085.90  1115.63
eigval :     1123.35  1181.90  1203.35  1225.76  1227.83  1251.15
eigval :     1266.81  1282.36  1316.94  1408.54  1410.74  1421.69
eigval :     1450.99  1455.20  1462.07  1497.27  1501.00  1504.94
eigval :     1508.43  1577.46  1589.09  2938.93  2942.43  2949.32
eigval :     2960.83  3011.43  3013.27  3024.00  3024.74  3034.33
eigval :     3039.06  3058.87  3068.37  3074.75  3087.06  3094.12
 reduced masses (amu)
   1: 12.05   2: 15.06   3: 12.37   4: 12.85   5: 11.33   6: 14.02   7:  9.91   8:  9.28
   9:  9.52  10:  6.72  11: 10.38  12:  7.71  13:  3.02  14:  9.55  15:  6.37  16:  9.91
  17: 11.28  18: 13.78  19:  9.07  20: 19.01  21: 13.16  22: 11.18  23: 13.85  24: 10.51
  25: 12.57  26: 15.65  27:  4.47  28:  5.44  29:  4.03  30:  3.33  31:  3.58  32:  4.15
  33:  2.98  34: 10.10  35:  3.68  36:  3.15  37:  3.72  38:  3.91  39:  9.50  40:  9.32
  41:  8.37  42:  8.47  43:  4.44  44:  1.30  45:  1.99  46:  3.63  47:  3.30  48:  4.17
  49:  4.15  50:  3.36  51: 11.92  52:  2.94  53:  2.95  54:  8.59  55:  4.58  56:  2.32
  57:  5.27  58:  1.55  59:  1.54  60:  1.54  61:  1.56  62: 11.42  63: 11.44  64:  1.98
  65:  1.97  66:  1.49  67:  1.49  68:  1.87  69:  1.87  70:  1.72  71:  1.87  72:  1.42
  73:  1.55  74:  1.79  75:  1.77  76:  1.84  77:  1.88  78:  1.86
 IR intensities (km·mol⁻¹)
   1:  0.20   2:  0.02   3:  0.13   4:  0.08   5:  0.15   6:  0.00   7:  0.17   8:  0.15
   9:  0.14  10:  0.51  11:  0.04  12:  0.14  13:  0.17  14:  0.18  15:  0.12  16:  0.25
  17:  0.55  18:  0.33  19:  0.04  20:  1.62  21:  4.55  22:  0.04  23: 10.80  24:  3.15
  25:  0.15  26: 26.43  27: 34.22  28: 19.73  29: 19.67  30:  0.19  31:  0.01  32:  0.05
  33:  0.00  34:  2.00  35:  1.42  36:  1.90  37:  2.10  38:  8.47  39:  9.78  40:  7.25
  41:  0.04  42:  1.16  43:  0.14  44:  0.02  45:  0.75  46:  2.18  47:  3.78  48:  2.96
  49:  5.42  50:  0.33  51:  0.40  52:  1.71  53:  1.87  54:  0.74  55:  0.78  56:  1.12
  57:  0.38  58:  4.15  59:  0.73  60:  0.99  61:  1.24  62:  0.49  63:  5.45  64: 22.52
  65: 19.90  66:  9.73  67: 20.36  68: 48.88  69: 51.10  70: 23.71  71: 29.83  72: 24.99
  73: 21.59  74: 14.35  75:  5.51  76: 52.56  77: 77.97  78: 26.90
 Raman intensities (Ä⁴*amu⁻¹)
   1:  0.00   2:  0.00   3:  0.00   4:  0.00   5:  0.00   6:  0.00   7:  0.00   8:  0.00
   9:  0.00  10:  0.00  11:  0.00  12:  0.00  13:  0.00  14:  0.00  15:  0.00  16:  0.00
  17:  0.00  18:  0.00  19:  0.00  20:  0.00  21:  0.00  22:  0.00  23:  0.00  24:  0.00
  25:  0.00  26:  0.00  27:  0.00  28:  0.00  29:  0.00  30:  0.00  31:  0.00  32:  0.00
  33:  0.00  34:  0.00  35:  0.00  36:  0.00  37:  0.00  38:  0.00  39:  0.00  40:  0.00
  41:  0.00  42:  0.00  43:  0.00  44:  0.00  45:  0.00  46:  0.00  47:  0.00  48:  0.00
  49:  0.00  50:  0.00  51:  0.00  52:  0.00  53:  0.00  54:  0.00  55:  0.00  56:  0.00
  57:  0.00  58:  0.00  59:  0.00  60:  0.00  61:  0.00  62:  0.00  63:  0.00  64:  0.00
  65:  0.00  66:  0.00  67:  0.00  68:  0.00  69:  0.00  70:  0.00  71:  0.00  72:  0.00
  73:  0.00  74:  0.00  75:  0.00  76:  0.00  77:  0.00  78:  0.00
 output can be read by thermo (or use thermo option).
 writing <g98.out> molden fake output.
 recommended (thermochemical) frequency scaling factor: 1.0
           -------------------------------------------------
          |             Thermodynamic Functions             |
           -------------------------------------------------

Refinement of some symmetry elements was terminated before convergence was reached.
Some symmetry elements may remain unidentified.
Molecule has no symmetry elements
It seems to be the C1 point group
c1  symmetry found (for desy threshold:  0.10E+00) used in thermo

          ...................................................
          :                      SETUP                      :
          :.................................................:
          :  # frequencies                          72      :
          :  # imaginary freq.                       0      :
          :  linear?                             false      :
          :  only rotor calc.                    false      :
          :  symmetry                               c1      :
          :  rotational number                       1      :
          :  scaling factor                  1.0000000      :
          :  rotor cutoff                   50.0000000 cm⁻¹ :
          :  imag. cutoff                  -20.0000000 cm⁻¹ :
          :.................................................:

    mode    ω/cm⁻¹     T·S(HO)/kcal·mol⁻¹    T·S(FR)/kcal·mol⁻¹   T·S(vib)
   ------------------------------------------------------------------------
       1     27.33    -1.79320 (  8.19%)    -1.23523 ( 91.81%)    -1.28095
       2     70.43    -1.23469 ( 79.75%)    -0.95494 ( 20.25%)    -1.17804
       3     81.71    -1.14767 ( 87.70%)    -0.91095 ( 12.30%)    -1.11857
       4    127.25    -0.89064 ( 97.67%)    -0.77977 (  2.33%)    -0.88806
       5    129.52    -0.88050 ( 97.83%)    -0.77454 (  2.17%)    -0.87820
       6    199.80    -0.63654 ( 99.61%)    -0.64614 (  0.39%)    -0.63658
       7    204.30    -0.62433 ( 99.64%)    -0.63953 (  0.36%)    -0.62438
       8    227.99    -0.56490 ( 99.77%)    -0.60703 (  0.23%)    -0.56500
       9    261.51    -0.49244 ( 99.87%)    -0.56640 (  0.13%)    -0.49254
      10    277.18    -0.46243 ( 99.89%)    -0.54917 (  0.11%)    -0.46252
      11    283.86    -0.45030 ( 99.90%)    -0.54211 (  0.10%)    -0.45038
   ------------------------------------------------------------------------

   temp. (K)  partition function   enthalpy   heat capacity  entropy
                                   cal/mol     cal/K/mol   cal/K/mol   J/K/mol
 298.15  VIB  0.119E+05             6091.867     39.518     37.056
         ROT  0.113E+07              888.752      2.981     30.681
         INT  0.134E+11             6980.619     42.499     67.737
         TR   0.207E+28             1481.254      4.968     41.214
         TOT                        8461.8731    47.4671   108.9502   455.8476

       T/K    H(0)-H(T)+PV         H(T)/Eh          T*S/Eh         G(T)/Eh
   ------------------------------------------------------------------------
    298.15    0.134849E-01    0.232538E+00    0.517658E-01    0.180772E+00
   ------------------------------------------------------------------------

         :::::::::::::::::::::::::::::::::::::::::::::::::::::
         ::                  THERMODYNAMIC                  ::
         :::::::::::::::::::::::::::::::::::::::::::::::::::::
         :: total free energy         -31.375157541488 Eh   ::
         ::.................................................::
         :: total energy              -31.555929949235 Eh   ::
         :: zero point energy           0.219053306313 Eh   ::
         :: G(RRHO) w/o ZPVE           -0.038280898567 Eh   ::
         :: G(RRHO) contrib.            0.180772407746 Eh   ::
         :::::::::::::::::::::::::::::::::::::::::::::::::::::

optimized geometry written to: xtbopt.xyz


           -------------------------------------------------
          | TOTAL ENERGY              -31.555929949235 Eh   |
          | TOTAL ENTHALPY            -31.323391789717 Eh   |
          | TOTAL FREE ENERGY         -31.375157541488 Eh   |
          | GRADIENT NORM               0.000018002567 Eh/α |
          | HOMO-LUMO GAP               3.637318066954 eV   |
           -------------------------------------------------

------------------------------------------------------------------------
 * finished run on 2025/07/14 at 11:35:30.263     
------------------------------------------------------------------------
 total:
 * wall-time:     0 d,  0 h,  0 min,  8.600 sec
 *  cpu-time:     0 d,  0 h,  1 min, 29.591 sec
 * ratio c/w:    10.418 speedup
 SCF:
 * wall-time:     0 d,  0 h,  0 min,  0.088 sec
 *  cpu-time:     0 d,  0 h,  0 min,  1.058 sec
 * ratio c/w:    11.953 speedup
 ANC optimizer:
 * wall-time:     0 d,  0 h,  0 min,  5.165 sec
 *  cpu-time:     0 d,  0 h,  1 min,  1.781 sec
 * ratio c/w:    11.962 speedup
 analytical hessian:
 * wall-time:     0 d,  0 h,  0 min,  3.337 sec
 *  cpu-time:     0 d,  0 h,  0 min, 26.653 sec
 * ratio c/w:     7.987 speedup

