      -----------------------------------------------------------      
     |                   =====================                   |     
     |                           x T B                           |     
     |                   =====================                   |     
     |                         S. Grimme                         |     
     |          Mulliken Center for Theoretical Chemistry        |     
     |                    University of Bonn                     |     
      -----------------------------------------------------------      

   * xtb version 6.7.0 (08769fc) compiled by 'albert@albert-system' on 2024-03-04

   xtb is free software: you can redistribute it and/or modify it under
   the terms of the GNU Lesser General Public License as published by
   the Free Software Foundation, either version 3 of the License, or
   (at your option) any later version.
   
   xtb is distributed in the hope that it will be useful,
   but WITHOUT ANY WARRANTY; without even the implied warranty of
   MERCHANTABILITY or FITNESS FOR A PARTICULAR PURPOSE.  See the
   GNU Lesser General Public License for more details.
   
   Cite this work as:
   * C. Bannwarth, E. Caldeweyher, S. Ehlert, A. Hansen, P. Pracht,
     J. Seibert, S. Spicher, S. Grimme, WIREs Comput. Mol. Sci., 2020, 11,
     e01493. DOI: 10.1002/wcms.1493
   
   for GFN2-xTB:
   * C. Bannwarth, S. Ehlert and S. Grimme., J. Chem. Theory Comput., 2019,
     15, 1652-1671. DOI: 10.1021/acs.jctc.8b01176
   for GFN1-xTB:
   * S. Grimme, C. Bannwarth, P. Shushkov, J. Chem. Theory Comput., 2017,
     13, 1989-2009. DOI: 10.1021/acs.jctc.7b00118
   for GFN0-xTB:
   * P. Pracht, E. Caldeweyher, S. Ehlert, S. Grimme, ChemRxiv, 2019, preprint.
     DOI: 10.26434/chemrxiv.8326202.v1
   for GFN-FF:
   * S. Spicher and S. Grimme, Angew. Chem. Int. Ed., 2020, 59, 15665-15673.
     DOI: 10.1002/anie.202004239
   
   for ALPB and GBSA implicit solvation:
   * S. Ehlert, M. Stahn, S. Spicher, S. Grimme, J. Chem. Theory Comput.,
     2021, 17, 4250-4261. DOI: 10.1021/acs.jctc.1c00471
   
   for ddCOSMO and CPCM-X implicit solvation:
   * M. Stahn, S. Ehlert, S. Grimme, J. Phys. Chem. A,
     2023, XX, XXXX-XXXX. DOI: 10.1021/acs.jpca.3c04382
   
   for DFT-D4:
   * E. Caldeweyher, C. Bannwarth and S. Grimme, J. Chem. Phys., 2017,
     147, 034112. DOI: 10.1063/1.4993215
   * E. Caldeweyher, S. Ehlert, A. Hansen, H. Neugebauer, S. Spicher,
     C. Bannwarth and S. Grimme, J. Chem. Phys., 2019, 150, 154122.
     DOI: 10.1063/1.5090222
   * E. Caldeweyher, J.-M. Mewes, S. Ehlert and S. Grimme, Phys. Chem. Chem. Phys.
     2020, 22, 8499-8512. DOI: 10.1039/D0CP00502A
   
   for sTDA-xTB:
   * S. Grimme and C. Bannwarth, J. Chem. Phys., 2016, 145, 054103.
     DOI: 10.1063/1.4959605
   
   in the mass-spec context:
   * V. Asgeirsson, C. Bauer and S. Grimme, Chem. Sci., 2017, 8, 4879.
     DOI: 10.1039/c7sc00601b
   * J. Koopman and S. Grimme, ACS Omega 2019, 4, 12, 15120-15133.
     DOI: 10.1021/acsomega.9b02011
   
   for metadynamics refer to:
   * S. Grimme, J. Chem. Theory Comput., 2019, 155, 2847-2862
     DOI: 10.1021/acs.jctc.9b00143
   
   for SPH calculations refer to:
   * S. Spicher and S. Grimme, J. Chem. Theory Comput., 2021, 17, 1701-1714
     DOI: 10.1021/acs.jctc.0c01306
   
   for ONIOM refer to:
   * C. Plett, A. Katbashev, S. Ehlert, S. Grimme, M. Bursch,
     Phys. Chem. Chem. Phys., 2023, 25, 17860-17868. DOI: 10.1039/D3CP02178E
   
   for DIPRO refer to:
   * J. Kohn, N. Gildemeister, S. Grimme, D. Fazzi, A. Hansen,
     J. Chem. Phys., 2023, just accepted.
   
   for PTB refer to:
   * S. Grimme, M. Mueller, A. Hansen, J. Chem. Phys., 2023, 158, 124111.
     DOI: 10.1063/5.0137838
   
   with help from (in alphabetical order)
   P. Atkinson, C. Bannwarth, F. Bohle, G. Brandenburg, E. Caldeweyher
   M. Checinski, S. Dohm, S. Ehlert, S. Ehrlich, I. Gerasimov, C. Hölzer
   A. Katbashev, J. Kohn, J. Koopman, C. Lavigne, S. Lehtola, F. März, M. Müller,
   F. Musil, H. Neugebauer, J. Pisarek, C. Plett, P. Pracht, F. Pultar,
   J. Seibert, P. Shushkov, S. Spicher, M. Stahn, M. Steiner, T. Strunk,
   J. Stückrath, T. Rose, and J. Unsleber
   
 * started run on 2025/07/14 at 11:29:30.306     
   ID    Z sym.   atoms
    1   15 P      1
    2    6 C      2, 5, 9-14, 20, 23
    3    1 H      3, 4, 6-8, 15-19, 21, 22, 24-26

           -------------------------------------------------
          |                Calculation Setup                |
           -------------------------------------------------

          program call               : /home/minenky/programs/xtb/xtb-dist/bin/xtb m1_00_PEt2Ph-PBE0-D3-TZ-uniMM_3.xyz --charge 0 --T --ohess extreme --cycles 5000 --acc 0.01 --iterations 5000
          coordinate file            : m1_00_PEt2Ph-PBE0-D3-TZ-uniMM_3.xyz
          omp threads                :                    12

########################################################################
[WARNING] Please study the warnings concerning your input carefully
-1- prog_main_parseArguments: Unknown option '--T' provided
########################################################################

           -------------------------------------------------
          |                 G F N 2 - x T B                 |
           -------------------------------------------------

        Reference                      10.1021/acs.jctc.8b01176
      * Hamiltonian:
        H0-scaling (s, p, d)           1.850000    2.230000    2.230000
        zeta-weighting                 0.500000
      * Dispersion:
        s8                             2.700000
        a1                             0.520000
        a2                             5.000000
        s9                             5.000000
      * Repulsion:
        kExp                           1.500000    1.000000
        rExp                           1.000000
      * Coulomb:
        alpha                          2.000000
        third order                    shell-resolved
        anisotropic                    true
        a3                             3.000000
        a5                             4.000000
        cn-shift                       1.200000
        cn-exp                         4.000000
        max-rad                        5.000000


          ...................................................
          :                      SETUP                      :
          :.................................................:
          :  # basis functions                  65          :
          :  # atomic orbitals                  64          :
          :  # shells                           38          :
          :  # electrons                        60          :
          :  max. iterations                  5000          :
          :  Hamiltonian                  GFN2-xTB          :
          :  restarted?                      false          :
          :  GBSA solvation                  false          :
          :  PC potential                    false          :
          :  electronic temp.          300.0000000     K    :
          :  accuracy                    0.0100000          :
          :  -> integral cutoff          0.4500000E+02      :
          :  -> integral neglect         0.1000000E-09      :
          :  -> SCF convergence          0.1000000E-07 Eh   :
          :  -> wf. convergence          0.1000000E-05 e    :
          :  Broyden damping             0.4000000          :
          :  net charge                          0          :
          :  unpaired electrons                  0          :
          ...................................................

 iter      E             dE          RMSdq      gap      omega  full diag
   1    -32.0170600 -0.320171E+02  0.394E+00    4.03       0.0  T
   2    -32.0630938 -0.460338E-01  0.238E+00    3.50       1.0  T
   3    -32.0625006  0.593202E-03  0.906E-01    3.21       1.0  T
   4    -32.0636008 -0.110016E-02  0.291E-01    3.23       1.0  T
   5    -32.0651604 -0.155967E-02  0.125E-01    3.28       1.0  T
   6    -32.0653820 -0.221604E-03  0.416E-02    3.27       1.0  T
   7    -32.0653931 -0.110991E-04  0.163E-02    3.28       1.2  T
   8    -32.0653937 -0.541425E-06  0.720E-03    3.27       2.7  T
   9    -32.0653942 -0.560691E-06  0.155E-03    3.27      12.7  T
  10    -32.0653943 -0.282724E-07  0.651E-04    3.27      30.1  T
  11    -32.0653943  0.186532E-09  0.306E-04    3.27      64.1  T
  12    -32.0653943 -0.965038E-09  0.444E-05    3.27     442.1  T
  13    -32.0653943 -0.454037E-11  0.172E-05    3.27    1139.3  T
  14    -32.0653943 -0.242295E-11  0.831E-06    3.27    2359.6  T
  15    -32.0653943 -0.724754E-12  0.231E-06    3.27    8486.2  T

   *** convergence criteria satisfied after 15 iterations ***

         #    Occupation            Energy/Eh            Energy/eV
      -------------------------------------------------------------
         1        2.0000           -0.6593167             -17.9409
       ...           ...                  ...                  ...
        24        2.0000           -0.4378063             -11.9133
        25        2.0000           -0.4252052             -11.5704
        26        2.0000           -0.4227707             -11.5042
        27        2.0000           -0.4088683             -11.1259
        28        2.0000           -0.4037368             -10.9862
        29        2.0000           -0.3978894             -10.8271
        30        2.0000           -0.3549695              -9.6592 (HOMO)
        31                         -0.2346231              -6.3844 (LUMO)
        32                         -0.2236240              -6.0851
        33                         -0.1435520              -3.9062
        34                         -0.1376404              -3.7454
        35                         -0.0897690              -2.4427
       ...                                ...                  ...
        64                          0.8064512              21.9447
      -------------------------------------------------------------
                  HL-Gap            0.1203464 Eh            3.2748 eV
             Fermi-level           -0.2947963 Eh           -8.0218 eV

 SCC (total)                   0 d,  0 h,  0 min,  0.087 sec
 SCC setup                      ...        0 min,  0.000 sec (  0.162%)
 Dispersion                     ...        0 min,  0.000 sec (  0.141%)
 classical contributions        ...        0 min,  0.000 sec (  0.012%)
 integral evaluation            ...        0 min,  0.002 sec (  2.310%)
 iterations                     ...        0 min,  0.083 sec ( 95.105%)
 molecular gradient             ...        0 min,  0.002 sec (  2.158%)
 printout                       ...        0 min,  0.000 sec (  0.092%)

         :::::::::::::::::::::::::::::::::::::::::::::::::::::
         ::                     SUMMARY                     ::
         :::::::::::::::::::::::::::::::::::::::::::::::::::::
         :: total energy             -31.550573359390 Eh    ::
         :: gradient norm              0.046928846484 Eh/a0 ::
         :: HOMO-LUMO gap              3.274791000895 eV    ::
         ::.................................................::
         :: SCC energy               -32.065134609173 Eh    ::
         :: -> isotropic ES            0.004034766639 Eh    ::
         :: -> anisotropic ES          0.006146066022 Eh    ::
         :: -> anisotropic XC          0.022268261677 Eh    ::
         :: -> dispersion             -0.023764024599 Eh    ::
         :: repulsion energy           0.514561249783 Eh    ::
         :: add. restraining           0.000000000000 Eh    ::
         :: total charge               0.000000000000 e     ::
         :::::::::::::::::::::::::::::::::::::::::::::::::::::

      ----------------------------------------------------------- 
     |                   =====================                   |
     |                        A N C O P T                        |
     |                   =====================                   |
     |               Approximate Normal Coordinate               |
     |                Rational Function Optimizer                |
      ----------------------------------------------------------- 
      ----------------------------------------------------------- 
     |                   =====================                   |
     |                        A N C O P T                        |
     |                   =====================                   |
     |               Approximate Normal Coordinate               |
     |                Rational Function Optimizer                |
      ----------------------------------------------------------- 

          ...................................................
          :                      SETUP                      :
          :.................................................:
          :   optimization level           extreme          :
          :   max. optcycles                  5000          :
          :   ANC micro-cycles                  20          :
          :   degrees of freedom                72          :
          :.................................................:
          :   RF solver                   davidson          :
          :   write xtbopt.log                true          :
          :   linear?                        false          :
          :   energy convergence         0.5000000E-07 Eh   :
          :   grad. convergence          0.5000000E-04 Eh/α :
          :   maxmium RF displ.          1.0000000          :
          :   Hlow (freq-cutoff)         0.1000000E-01      :
          :   Hmax (freq-cutoff)         5.0000000          :
          :   S6 in model hess.         20.0000000          :
          ...................................................

generating ANC from model Hessian ...
Using Lindh-Hessian (1995)
 Shifting diagonal of input Hessian by   9.143429637676913E-003
 Lowest  eigenvalues of input Hessian
    0.000000    0.000000    0.000000    0.000000    0.000000    0.000000
    0.010000    0.010112    0.010577    0.011238    0.011869    0.012753
    0.015085    0.017297    0.018773    0.018893    0.023929    0.025571
 Highest eigenvalues
    1.346752    1.534358    1.561827    1.863405    1.965442    1.985650
 

........................................................................
.............................. CYCLE    1 ..............................
........................................................................

 iter      E             dE          RMSdq      gap      omega  full diag
   1    -32.0653943 -0.320654E+02  0.119E-06    3.27       0.0  T
   2    -32.0653943 -0.213163E-13  0.640E-07    3.27   30633.1  T
   3    -32.0653943  0.568434E-13  0.408E-07    3.27   48034.6  T
     SCC iter.                  ...        0 min,  0.073 sec
     gradient                   ...        0 min,  0.002 sec
 * total energy  :   -31.5505734 Eh     change        0.1421085E-13 Eh
   gradient norm :     0.0469288 Eh/α   predicted     0.0000000E+00 (-100.00%)
   displ. norm   :     0.3515473 α      lambda       -0.8790509E-02
   maximum displ.:     0.2119832 α      in ANC's #13, #8, #43, ...

........................................................................
.............................. CYCLE    2 ..............................
........................................................................

 iter      E             dE          RMSdq      gap      omega  full diag
   1    -32.0713484 -0.320713E+02  0.438E-01    3.57       0.0  T
   2    -32.0716073 -0.258870E-03  0.209E-01    3.62       1.0  T
   3    -32.0716348 -0.275631E-04  0.728E-02    3.66       1.0  T
   4    -32.0716325  0.236590E-05  0.328E-02    3.66       1.0  T
   5    -32.0716405 -0.802488E-05  0.706E-03    3.66       2.8  T
   6    -32.0716411 -0.600269E-06  0.361E-03    3.66       5.4  T
   7    -32.0716412 -0.809608E-07  0.114E-03    3.66      17.2  T
   8    -32.0716412 -0.384485E-08  0.375E-04    3.66      52.3  T
   9    -32.0716412 -0.111090E-08  0.148E-04    3.66     132.1  T
  10    -32.0716412 -0.172626E-09  0.674E-05    3.66     290.9  T
  11    -32.0716412 -0.367137E-10  0.264E-05    3.66     742.9  T
  12    -32.0716412 -0.643752E-11  0.103E-05    3.66    1904.7  T
  13    -32.0716412 -0.298428E-12  0.386E-06    3.66    5083.2  T
  14    -32.0716412 -0.213163E-13  0.991E-07    3.66   19786.1  T
     SCC iter.                  ...        0 min,  0.076 sec
     gradient                   ...        0 min,  0.002 sec
 * total energy  :   -31.5553462 Eh     change       -0.4772842E-02 Eh
   gradient norm :     0.0138616 Eh/α   predicted    -0.4938655E-02 (   3.47%)
   displ. norm   :     0.2504612 α      lambda       -0.1533321E-02
   maximum displ.:     0.1391841 α      in ANC's #6, #13, #9, ...

........................................................................
.............................. CYCLE    3 ..............................
........................................................................

 iter      E             dE          RMSdq      gap      omega  full diag
   1    -32.0760099 -0.320760E+02  0.118E-01    3.66       0.0  T
   2    -32.0760118 -0.189328E-05  0.698E-02    3.65       1.0  T
   3    -32.0760115  0.381303E-06  0.683E-03    3.65       2.9  T
   4    -32.0760120 -0.584320E-06  0.381E-03    3.65       5.1  T
   5    -32.0760122 -0.131023E-06  0.123E-03    3.65      16.0  T
   6    -32.0760122 -0.175170E-07  0.594E-04    3.65      33.0  T
   7    -32.0760122 -0.135361E-08  0.171E-04    3.65     115.0  T
   8    -32.0760122 -0.155744E-09  0.792E-05    3.65     247.7  T
   9    -32.0760122 -0.287557E-10  0.370E-05    3.65     530.5  T
  10    -32.0760122 -0.487432E-11  0.142E-05    3.65    1377.0  T
  11    -32.0760122 -0.127898E-11  0.460E-06    3.65    4259.6  T
  12    -32.0760122 -0.568434E-13  0.182E-06    3.65   10786.5  T
     SCC iter.                  ...        0 min,  0.075 sec
     gradient                   ...        0 min,  0.002 sec
 * total energy  :   -31.5564287 Eh     change       -0.1082478E-02 Eh
   gradient norm :     0.0064008 Eh/α   predicted    -0.8149519E-03 ( -24.71%)
   displ. norm   :     0.2525103 α      lambda       -0.6902042E-03
   maximum displ.:     0.1650966 α      in ANC's #6, #13, #9, ...

........................................................................
.............................. CYCLE    4 ..............................
........................................................................

 iter      E             dE          RMSdq      gap      omega  full diag
   1    -32.0773365 -0.320773E+02  0.808E-02    3.65       0.0  T
   2    -32.0773384 -0.193407E-05  0.469E-02    3.64       1.0  T
   3    -32.0773385 -0.455739E-07  0.690E-03    3.64       2.8  T
   4    -32.0773385 -0.830368E-07  0.359E-03    3.64       5.5  T
   5    -32.0773387 -0.142076E-06  0.102E-03    3.64      19.2  T
   6    -32.0773387 -0.879172E-08  0.508E-04    3.64      38.6  T
   7    -32.0773387 -0.107864E-08  0.159E-04    3.64     123.0  T
   8    -32.0773387 -0.137277E-09  0.782E-05    3.64     250.8  T
   9    -32.0773387 -0.754525E-10  0.291E-05    3.64     674.5  T
  10    -32.0773387 -0.472511E-11  0.935E-06    3.64    2097.5  T
  11    -32.0773387 -0.923706E-13  0.364E-06    3.64    5381.7  T
     SCC iter.                  ...        0 min,  0.075 sec
     gradient                   ...        0 min,  0.002 sec
 * total energy  :   -31.5568456 Eh     change       -0.4168951E-03 Eh
   gradient norm :     0.0040151 Eh/α   predicted    -0.3671122E-03 ( -11.94%)
   displ. norm   :     0.1151993 α      lambda       -0.1125745E-03
   maximum displ.:     0.0875034 α      in ANC's #6, #4, #10, ...

........................................................................
.............................. CYCLE    5 ..............................
........................................................................

 iter      E             dE          RMSdq      gap      omega  full diag
   1    -32.0776848 -0.320777E+02  0.276E-02    3.64       0.0  T
   2    -32.0776851 -0.329188E-06  0.159E-02    3.64       1.2  T
   3    -32.0776850  0.785738E-07  0.329E-03    3.63       6.0  T
   4    -32.0776851 -0.107273E-06  0.151E-03    3.63      13.0  T
   5    -32.0776851 -0.283864E-07  0.596E-04    3.63      32.9  T
   6    -32.0776851 -0.287919E-08  0.232E-04    3.63      84.5  T
   7    -32.0776851 -0.949996E-11  0.734E-05    3.63     267.1  T
   8    -32.0776851 -0.423839E-10  0.355E-05    3.63     552.4  T
   9    -32.0776851 -0.101750E-10  0.129E-05    3.63    1521.1  T
  10    -32.0776851 -0.144240E-11  0.558E-06    3.63    3511.9  T
  11    -32.0776851 -0.234479E-12  0.172E-06    3.63   11384.0  T
     SCC iter.                  ...        0 min,  0.076 sec
     gradient                   ...        0 min,  0.002 sec
 * total energy  :   -31.5569245 Eh     change       -0.7892329E-04 Eh
   gradient norm :     0.0027369 Eh/α   predicted    -0.5703467E-04 ( -27.73%)
   displ. norm   :     0.0875093 α      lambda       -0.5562276E-04
   maximum displ.:     0.0607311 α      in ANC's #6, #4, #1, ...

........................................................................
.............................. CYCLE    6 ..............................
........................................................................

 iter      E             dE          RMSdq      gap      omega  full diag
   1    -32.0778538 -0.320779E+02  0.232E-02    3.63       0.0  T
   2    -32.0778541 -0.246165E-06  0.132E-02    3.63       1.5  T
   3    -32.0778540  0.763259E-07  0.327E-03    3.63       6.0  T
   4    -32.0778541 -0.106662E-06  0.953E-04    3.63      20.6  T
   5    -32.0778541 -0.144121E-07  0.456E-04    3.63      43.1  T
   6    -32.0778541 -0.944830E-09  0.172E-04    3.63     114.2  T
   7    -32.0778541  0.144595E-10  0.519E-05    3.63     378.2  T
   8    -32.0778541 -0.365645E-10  0.201E-05    3.63     975.8  T
   9    -32.0778541 -0.445510E-11  0.916E-06    3.63    2140.5  T
  10    -32.0778541 -0.234479E-12  0.456E-06    3.63    4296.5  T
     SCC iter.                  ...        0 min,  0.076 sec
     gradient                   ...        0 min,  0.002 sec
 * total energy  :   -31.5569611 Eh     change       -0.3662213E-04 Eh
   gradient norm :     0.0010545 Eh/α   predicted    -0.2802893E-04 ( -23.46%)
   displ. norm   :     0.0792655 α      lambda       -0.1562475E-04
   maximum displ.:     0.0465404 α      in ANC's #4, #6, #1, ...

........................................................................
.............................. CYCLE    7 ..............................
........................................................................

 iter      E             dE          RMSdq      gap      omega  full diag
   1    -32.0778060 -0.320778E+02  0.195E-02    3.63       0.0  T
   2    -32.0778062 -0.167974E-06  0.111E-02    3.63       1.8  T
   3    -32.0778061  0.354845E-07  0.278E-03    3.63       7.1  T
   4    -32.0778062 -0.487107E-07  0.875E-04    3.63      22.4  T
   5    -32.0778062 -0.132779E-07  0.353E-04    3.63      55.5  T
   6    -32.0778062 -0.108555E-08  0.115E-04    3.63     170.8  T
   7    -32.0778062  0.814282E-11  0.540E-05    3.63     363.4  T
   8    -32.0778062 -0.130669E-10  0.137E-05    3.63    1428.9  T
   9    -32.0778062 -0.297717E-11  0.500E-06    3.63    3923.7  T
  10    -32.0778062 -0.120792E-12  0.241E-06    3.63    8125.7  T
     SCC iter.                  ...        0 min,  0.074 sec
     gradient                   ...        0 min,  0.002 sec
 * total energy  :   -31.5569736 Eh     change       -0.1247681E-04 Eh
   gradient norm :     0.0011930 Eh/α   predicted    -0.7834446E-05 ( -37.21%)
   displ. norm   :     0.0383632 α      lambda       -0.6226334E-05
   maximum displ.:     0.0212762 α      in ANC's #1, #4, #3, ...

........................................................................
.............................. CYCLE    8 ..............................
........................................................................

 iter      E             dE          RMSdq      gap      omega  full diag
   1    -32.0778421 -0.320778E+02  0.881E-03    3.63       0.0  T
   2    -32.0778421 -0.301496E-07  0.479E-03    3.63       4.1  T
   3    -32.0778421  0.100062E-08  0.110E-03    3.63      17.7  T
   4    -32.0778421 -0.166340E-08  0.413E-04    3.63      47.5  T
   5    -32.0778421 -0.252330E-08  0.968E-05    3.63     202.6  T
   6    -32.0778421 -0.350511E-10  0.546E-05    3.63     359.3  T
   7    -32.0778421 -0.296723E-10  0.155E-05    3.63    1262.1  T
   8    -32.0778421 -0.117950E-11  0.669E-06    3.63    2931.7  T
   9    -32.0778421 -0.383693E-12  0.270E-06    3.63    7273.0  T
     SCC iter.                  ...        0 min,  0.073 sec
     gradient                   ...        0 min,  0.002 sec
 * total energy  :   -31.5569817 Eh     change       -0.8084763E-05 Eh
   gradient norm :     0.0008545 Eh/α   predicted    -0.3117437E-05 ( -61.44%)
   displ. norm   :     0.1010709 α      lambda       -0.1306897E-04
   maximum displ.:     0.0563047 α      in ANC's #1, #3, #4, ...

........................................................................
.............................. CYCLE    9 ..............................
........................................................................

 iter      E             dE          RMSdq      gap      omega  full diag
   1    -32.0778531 -0.320779E+02  0.226E-02    3.64       0.0  T
   2    -32.0778532 -0.903385E-07  0.127E-02    3.64       1.5  T
   3    -32.0778532  0.427665E-08  0.183E-03    3.64      10.7  T
   4    -32.0778532  0.482757E-09  0.888E-04    3.64      22.1  T
   5    -32.0778532 -0.176006E-07  0.213E-04    3.64      92.0  T
   6    -32.0778532  0.905942E-11  0.112E-04    3.64     175.4  T
   7    -32.0778532 -0.105501E-09  0.260E-05    3.64     754.3  T
   8    -32.0778532 -0.544276E-11  0.104E-05    3.64    1881.3  T
   9    -32.0778532 -0.802913E-12  0.537E-06    3.64    3653.3  T
  10    -32.0778532 -0.710543E-13  0.189E-06    3.64   10386.4  T
     SCC iter.                  ...        0 min,  0.074 sec
     gradient                   ...        0 min,  0.002 sec
 * total energy  :   -31.5569956 Eh     change       -0.1388162E-04 Eh
   gradient norm :     0.0007126 Eh/α   predicted    -0.6565974E-05 ( -52.70%)
   displ. norm   :     0.0910648 α      lambda       -0.6595038E-05
   maximum displ.:     0.0537628 α      in ANC's #1, #3, #5, ...

........................................................................
.............................. CYCLE   10 ..............................
........................................................................

 iter      E             dE          RMSdq      gap      omega  full diag
   1    -32.0778692 -0.320779E+02  0.204E-02    3.64       0.0  T
   2    -32.0778692 -0.504910E-07  0.116E-02    3.64       1.7  T
   3    -32.0778692  0.220050E-07  0.159E-03    3.64      12.3  T
   4    -32.0778692 -0.140828E-07  0.885E-04    3.64      22.2  T
   5    -32.0778692 -0.187116E-07  0.167E-04    3.64     117.1  T
   6    -32.0778692 -0.149214E-10  0.733E-05    3.64     267.6  T
   7    -32.0778692 -0.508749E-11  0.136E-05    3.64    1444.5  T
   8    -32.0778692 -0.126477E-11  0.602E-06    3.64    3255.9  T
   9    -32.0778692  0.142109E-13  0.274E-06    3.64    7164.9  T
     SCC iter.                  ...        0 min,  0.077 sec
     gradient                   ...        0 min,  0.002 sec
 * total energy  :   -31.5570026 Eh     change       -0.7003520E-05 Eh
   gradient norm :     0.0007874 Eh/α   predicted    -0.3310289E-05 ( -52.73%)
   displ. norm   :     0.0659727 α      lambda       -0.4270462E-05
   maximum displ.:     0.0419764 α      in ANC's #1, #3, #5, ...

........................................................................
.............................. CYCLE   11 ..............................
........................................................................

 iter      E             dE          RMSdq      gap      omega  full diag
   1    -32.0779644 -0.320780E+02  0.150E-02    3.64       0.0  T
   2    -32.0779644 -0.191742E-07  0.891E-03    3.64       2.2  T
   3    -32.0779644  0.219023E-07  0.132E-03    3.64      14.9  T
   4    -32.0779644 -0.277196E-07  0.374E-04    3.64      52.4  T
   5    -32.0779644 -0.912692E-09  0.199E-04    3.64      98.4  T
   6    -32.0779644 -0.403311E-09  0.788E-05    3.64     248.9  T
   7    -32.0779644 -0.127258E-10  0.131E-05    3.64    1496.2  T
   8    -32.0779644 -0.945022E-12  0.467E-06    3.64    4202.9  T
   9    -32.0779644 -0.852651E-13  0.218E-06    3.64    9015.8  T
     SCC iter.                  ...        0 min,  0.083 sec
     gradient                   ...        0 min,  0.002 sec
 * total energy  :   -31.5570076 Eh     change       -0.5036370E-05 Eh
   gradient norm :     0.0005088 Eh/α   predicted    -0.2140562E-05 ( -57.50%)
   displ. norm   :     0.0708775 α      lambda       -0.4765374E-05
   maximum displ.:     0.0459849 α      in ANC's #1, #3, #5, ...

........................................................................
.............................. CYCLE   12 ..............................
........................................................................

 iter      E             dE          RMSdq      gap      omega  full diag
   1    -32.0780011 -0.320780E+02  0.170E-02    3.64       0.0  T
   2    -32.0780011 -0.168464E-07  0.101E-02    3.64       1.9  T
   3    -32.0780011  0.227073E-07  0.124E-03    3.64      15.8  T
   4    -32.0780011 -0.301937E-07  0.333E-04    3.64      58.8  T
   5    -32.0780011 -0.208090E-09  0.164E-04    3.64     119.5  T
   6    -32.0780011 -0.212367E-09  0.472E-05    3.64     415.2  T
   7    -32.0780011 -0.456879E-11  0.148E-05    3.64    1327.2  T
   8    -32.0780011 -0.211031E-11  0.530E-06    3.64    3698.6  T
   9    -32.0780011 -0.142109E-12  0.212E-06    3.64    9231.3  T
     SCC iter.                  ...        0 min,  0.073 sec
     gradient                   ...        0 min,  0.002 sec
 * total energy  :   -31.5570135 Eh     change       -0.5850555E-05 Eh
   gradient norm :     0.0002797 Eh/α   predicted    -0.2389321E-05 ( -59.16%)
   displ. norm   :     0.0871514 α      lambda       -0.4685982E-05
   maximum displ.:     0.0562698 α      in ANC's #1, #3, #5, ...

........................................................................
.............................. CYCLE   13 ..............................
........................................................................

 iter      E             dE          RMSdq      gap      omega  full diag
   1    -32.0779186 -0.320779E+02  0.207E-02    3.64       0.0  T
   2    -32.0779187 -0.229070E-07  0.122E-02    3.64       1.6  T
   3    -32.0779187 -0.120131E-08  0.814E-04    3.64      24.1  T
   4    -32.0779187 -0.492437E-08  0.405E-04    3.64      48.5  T
   5    -32.0779187 -0.154704E-08  0.154E-04    3.64     127.5  T
   6    -32.0779187 -0.262844E-09  0.763E-05    3.64     257.2  T
   7    -32.0779187 -0.209042E-10  0.147E-05    3.64    1332.7  T
   8    -32.0779187 -0.923706E-12  0.766E-06    3.64    2560.2  T
   9    -32.0779187 -0.852651E-12  0.196E-06    3.64    9988.3  T
     SCC iter.                  ...        0 min,  0.073 sec
     gradient                   ...        0 min,  0.002 sec
 * total energy  :   -31.5570187 Eh     change       -0.5217097E-05 Eh
   gradient norm :     0.0003912 Eh/α   predicted    -0.2352789E-05 ( -54.90%)
   displ. norm   :     0.0587502 α      lambda       -0.2094613E-05
   maximum displ.:     0.0389815 α      in ANC's #1, #3, #5, ...

........................................................................
.............................. CYCLE   14 ..............................
........................................................................

 iter      E             dE          RMSdq      gap      omega  full diag
   1    -32.0779882 -0.320780E+02  0.148E-02    3.64       0.0  T
   2    -32.0779882 -0.150342E-07  0.862E-03    3.64       2.3  T
   3    -32.0779882 -0.275390E-08  0.581E-04    3.64      33.7  T
   4    -32.0779882 -0.530939E-09  0.254E-04    3.64      77.2  T
   5    -32.0779882 -0.325102E-09  0.114E-04    3.64     172.6  T
   6    -32.0779882 -0.139494E-09  0.413E-05    3.64     474.9  T
   7    -32.0779882 -0.116245E-10  0.104E-05    3.64    1889.3  T
   8    -32.0779882 -0.121503E-11  0.457E-06    3.64    4289.5  T
   9    -32.0779882 -0.923706E-13  0.206E-06    3.64    9498.1  T
     SCC iter.                  ...        0 min,  0.074 sec
     gradient                   ...        0 min,  0.002 sec
 * total energy  :   -31.5570208 Eh     change       -0.2164864E-05 Eh
   gradient norm :     0.0002847 Eh/α   predicted    -0.1050281E-05 ( -51.49%)
   displ. norm   :     0.0270550 α      lambda       -0.6059936E-06
   maximum displ.:     0.0185825 α      in ANC's #1, #2, #3, ...

........................................................................
.............................. CYCLE   15 ..............................
........................................................................

 iter      E             dE          RMSdq      gap      omega  full diag
   1    -32.0779663 -0.320780E+02  0.688E-03    3.64       0.0  T
   2    -32.0779663 -0.753293E-08  0.398E-03    3.64       4.9  T
   3    -32.0779663  0.194129E-08  0.553E-04    3.64      35.5  T
   4    -32.0779663 -0.154521E-08  0.279E-04    3.64      70.3  T
   5    -32.0779663 -0.176557E-08  0.758E-05    3.64     258.6  T
   6    -32.0779663 -0.277680E-10  0.321E-05    3.64     610.9  T
   7    -32.0779663 -0.461853E-12  0.797E-06    3.64    2462.2  T
   8    -32.0779663 -0.639488E-12  0.279E-06    3.64    7026.2  T
     SCC iter.                  ...        0 min,  0.074 sec
     gradient                   ...        0 min,  0.002 sec
 * total energy  :   -31.5570214 Eh     change       -0.5912080E-06 Eh
   gradient norm :     0.0001372 Eh/α   predicted    -0.3041007E-06 ( -48.56%)
   displ. norm   :     0.0107977 α      lambda       -0.1982342E-06
   maximum displ.:     0.0076251 α      in ANC's #1, #2, #4, ...

........................................................................
.............................. CYCLE   16 ..............................
........................................................................

 iter      E             dE          RMSdq      gap      omega  full diag
   1    -32.0779752 -0.320780E+02  0.356E-03    3.64       0.0  T
   2    -32.0779752 -0.804320E-09  0.205E-03    3.64       9.5  T
   3    -32.0779752  0.538904E-09  0.215E-04    3.64      91.2  T
   4    -32.0779752 -0.606690E-09  0.967E-05    3.64     202.8  T
   5    -32.0779752 -0.169550E-09  0.327E-05    3.64     600.2  T
   6    -32.0779752 -0.219558E-11  0.974E-06    3.64    2013.0  T
   7    -32.0779752 -0.433431E-12  0.320E-06    3.64    6123.9  T
     SCC iter.                  ...        0 min,  0.073 sec
     gradient                   ...        0 min,  0.002 sec
 * total energy  :   -31.5570216 Eh     change       -0.2026024E-06 Eh
   gradient norm :     0.0000600 Eh/α   predicted    -0.9984197E-07 ( -50.72%)
   displ. norm   :     0.0073875 α      lambda       -0.1083543E-06
   maximum displ.:     0.0045645 α      in ANC's #1, #2, #4, ...

........................................................................
.............................. CYCLE   17 ..............................
........................................................................

 iter      E             dE          RMSdq      gap      omega  full diag
   1    -32.0779847 -0.320780E+02  0.249E-03    3.64       0.0  T
   2    -32.0779847 -0.356380E-09  0.145E-03    3.64      13.5  T
   3    -32.0779847  0.240668E-09  0.139E-04    3.64     141.5  T
   4    -32.0779847 -0.306663E-09  0.563E-05    3.64     348.3  T
   5    -32.0779847 -0.557918E-10  0.178E-05    3.64    1104.8  T
   6    -32.0779847 -0.618172E-12  0.714E-06    3.64    2746.7  T
   7    -32.0779847 -0.163425E-12  0.195E-06    3.64   10040.7  T
     SCC iter.                  ...        0 min,  0.075 sec
     gradient                   ...        0 min,  0.002 sec
 * total energy  :   -31.5570218 Eh     change       -0.1327807E-06 Eh
   gradient norm :     0.0000831 Eh/α   predicted    -0.5575363E-07 ( -58.01%)
   displ. norm   :     0.0103885 α      lambda       -0.1407884E-06
   maximum displ.:     0.0062619 α      in ANC's #2, #1, #3, ...

........................................................................
.............................. CYCLE   18 ..............................
........................................................................

 iter      E             dE          RMSdq      gap      omega  full diag
   1    -32.0779591 -0.320780E+02  0.347E-03    3.64       0.0  T
   2    -32.0779591 -0.563702E-09  0.204E-03    3.64       9.6  T
   3    -32.0779591  0.372381E-09  0.176E-04    3.64     111.5  T
   4    -32.0779591 -0.544880E-09  0.582E-05    3.64     336.9  T
   5    -32.0779591 -0.445226E-10  0.179E-05    3.64    1097.4  T
   6    -32.0779591 -0.888178E-12  0.799E-06    3.64    2454.5  T
   7    -32.0779591 -0.348166E-12  0.230E-06    3.64    8537.1  T
     SCC iter.                  ...        0 min,  0.081 sec
     gradient                   ...        0 min,  0.002 sec
 * total energy  :   -31.5570219 Eh     change       -0.1668746E-06 Eh
   gradient norm :     0.0000928 Eh/α   predicted    -0.7093332E-07 ( -57.49%)
   displ. norm   :     0.0116139 α      lambda       -0.1214851E-06
   maximum displ.:     0.0068725 α      in ANC's #2, #1, #3, ...

........................................................................
.............................. CYCLE   19 ..............................
........................................................................

 iter      E             dE          RMSdq      gap      omega  full diag
   1    -32.0779498 -0.320779E+02  0.388E-03    3.64       0.0  T
   2    -32.0779498 -0.500613E-09  0.228E-03    3.64       8.6  T
   3    -32.0779498 -0.146436E-09  0.109E-04    3.64     180.3  T
   4    -32.0779498 -0.564455E-10  0.427E-05    3.64     459.3  T
   5    -32.0779498 -0.152056E-11  0.177E-05    3.64    1109.6  T
   6    -32.0779498 -0.142109E-11  0.775E-06    3.64    2529.9  T
   7    -32.0779498 -0.767386E-12  0.189E-06    3.64   10389.0  T
     SCC iter.                  ...        0 min,  0.073 sec
     gradient                   ...        0 min,  0.002 sec
 * total energy  :   -31.5570221 Eh     change       -0.1349210E-06 Eh
   gradient norm :     0.0000653 Eh/α   predicted    -0.6440742E-07 ( -52.26%)
   displ. norm   :     0.0083709 α      lambda       -0.5933970E-07
   maximum displ.:     0.0048632 α      in ANC's #2, #3, #1, ...

........................................................................
.............................. CYCLE   20 ..............................
........................................................................

 iter      E             dE          RMSdq      gap      omega  full diag
   1    -32.0779614 -0.320780E+02  0.275E-03    3.64       0.0  T
   2    -32.0779614 -0.307963E-09  0.161E-03    3.64      12.2  T
   3    -32.0779614 -0.276330E-10  0.107E-04    3.64     184.1  T
   4    -32.0779614 -0.744862E-10  0.405E-05    3.64     484.2  T
   5    -32.0779614 -0.686384E-11  0.184E-05    3.64    1065.3  T
   6    -32.0779614 -0.255085E-11  0.738E-06    3.64    2656.0  T
   7    -32.0779614 -0.241585E-12  0.142E-06    3.64   13829.9  T
     SCC iter.                  ...        0 min,  0.072 sec
     gradient                   ...        0 min,  0.002 sec
 * total energy  :   -31.5570221 Eh     change       -0.6024602E-07 Eh
   gradient norm :     0.0000309 Eh/α   predicted    -0.3033978E-07 ( -49.64%)
   displ. norm   :     0.0050454 α      lambda        0.1470260E-07
   maximum displ.:     0.0028707 α      in ANC's #2, #1, #3, ...
 * RMSD in coord.:     0.2231427 α      energy gain  -0.6448765E-02 Eh

generating ANC from model Hessian ...
Using Lindh-Hessian (1995)
 Shifting diagonal of input Hessian by   9.187359942940135E-003
 Lowest  eigenvalues of input Hessian
    0.000000    0.000000    0.000000    0.000000    0.000000    0.000000
    0.010000    0.010161    0.010569    0.011155    0.011778    0.012734
    0.015014    0.016599    0.018475    0.018690    0.024245    0.025074
 Highest eigenvalues
    1.363261    1.554417    1.573091    1.882554    1.988199    2.004462
 

........................................................................
.............................. CYCLE   21 ..............................
........................................................................

 iter      E             dE          RMSdq      gap      omega  full diag
   1    -32.0779702 -0.320780E+02  0.170E-03    3.64       0.0  T
   2    -32.0779702 -0.118447E-09  0.993E-04    3.64      19.7  T
   3    -32.0779702 -0.342482E-11  0.684E-05    3.64     286.7  T
   4    -32.0779702 -0.350013E-10  0.268E-05    3.64     733.1  T
   5    -32.0779702 -0.385825E-11  0.119E-05    3.64    1644.0  T
   6    -32.0779702 -0.107292E-11  0.451E-06    3.64    4350.6  T
   7    -32.0779702 -0.426326E-13  0.913E-07    3.64   21477.1  T
     SCC iter.                  ...        0 min,  0.072 sec
     gradient                   ...        0 min,  0.002 sec
 * total energy  :   -31.5570221 Eh     change        0.1334467E-08 Eh
   gradient norm :     0.0000595 Eh/α   predicted     0.0000000E+00 (-100.00%)
   displ. norm   :     0.0000893 α      lambda        0.0000000E+00
   maximum displ.:     0.0000334 α      in ANC's #65, #23, #41, ...

........................................................................
.............................. CYCLE   22 ..............................
........................................................................

 iter      E             dE          RMSdq      gap      omega  full diag
   1    -32.0779740 -0.320780E+02  0.127E-04    3.64       0.0  T
   2    -32.0779740 -0.253806E-10  0.777E-05    3.64     252.3  T
   3    -32.0779740  0.279243E-11  0.338E-05    3.64     579.6  T
   4    -32.0779740 -0.626699E-11  0.979E-06    3.64    2003.2  T
   5    -32.0779740 -0.120792E-11  0.380E-06    3.64    5158.5  T
     SCC iter.                  ...        0 min,  0.071 sec
     gradient                   ...        0 min,  0.002 sec
 * total energy  :   -31.5570221 Eh     change       -0.3710454E-08 Eh
   gradient norm :     0.0000366 Eh/α   predicted    -0.2467755E-08 ( -33.49%)
   displ. norm   :     0.0000893 α      lambda        0.0000000E+00
   maximum displ.:     0.0000334 α      in ANC's #65, #23, #41, ...

   *** GEOMETRY OPTIMIZATION CONVERGED AFTER 22 ITERATIONS ***

------------------------------------------------------------------------
 total energy gain   :        -0.0064488 Eh       -4.0467 kcal/mol
 total RMSD          :         0.2231434 a0        0.1181 Å
 total power (kW/mol):        -0.7696017 (step)   -9.8395 (real)
------------------------------------------------------------------------

 ANCopt (total)                0 d,  0 h,  0 min,  1.721 sec
 optimizer setup                ...        0 min,  0.000 sec (  0.005%)
 model hessian                  ...        0 min,  0.013 sec (  0.729%)
 ANC generation                 ...        0 min,  0.001 sec (  0.041%)
 coordinate transformation      ...        0 min,  0.000 sec (  0.012%)
 single point calculation       ...        0 min,  1.704 sec ( 99.021%)
 optimization log               ...        0 min,  0.001 sec (  0.081%)
 hessian update                 ...        0 min,  0.000 sec (  0.018%)
 rational function              ...        0 min,  0.001 sec (  0.063%)

================
 final structure:
================
26
 xtb: 6.7.0 (08769fc)
P            1.64975373804804       -0.30519223394831       -3.04800654265876
C            0.79062658765640        0.74900587436184       -1.76956299454967
H           -0.19729105332593        0.99049642686740       -2.17255361869107
H            0.65034368533651        0.18722284062955       -0.84237722906047
C            1.57303324265554        2.02783893882116       -1.50509097333850
H            1.71308766423239        2.58579217468383       -2.42887713262438
H            2.55543770914499        1.79497106510763       -1.09691856358223
H            1.04517960165170        2.66232381282389       -0.79495387524580
C            3.13186368439409       -0.80238764233837       -2.07433082893316
C            3.08329964815062       -1.33604935610857       -0.79174592610097
C            4.36945800633780       -0.62198002153913       -2.68190469084796
C            4.24963067328654       -1.68058116692914       -0.13405496916736
C            5.53707659154630       -0.96619787934063       -2.02466491817835
C            5.47816701493187       -1.49688349440395       -0.74757967011563
H            2.13455031260691       -1.48717950062300       -0.29617668829442
H            4.40597078441297       -0.20683304555246       -3.67974303114650
H            4.20125238020869       -2.09503281683602        0.86316387755203
H            6.49274293070751       -0.82088853323894       -2.50747383552749
H            6.38663772774507       -1.76749765794187       -0.22935804850195
C            0.61839646321175       -1.84694227406234       -2.84062135497710
H            0.48872353884222       -2.08169892127546       -1.78092773851282
H           -0.36677903884615       -1.62480267544677       -3.26116589879793
C            1.24553598495207       -3.02365731392176       -3.57517363676484
H            2.22284247083721       -3.25696240197029       -3.15519828089790
H            1.37703998361665       -2.78726096957847       -4.62928490725115
H            0.61496766765815       -3.90771722823981       -3.49548152378570
 
 Bond Distances (Angstroems)
 ---------------------------
P1-C2=1.8665         P1-C9=1.8417         P1-C20=1.8665        C2-P1=1.8665         C2-H3=1.0939         C2-H4=1.0931         
C2-C5=1.5223         H3-C2=1.0939         H4-C2=1.0931         C5-C2=1.5223         C5-H6=1.0883         C5-H7=1.0890         
C5-H8=1.0888         H6-C5=1.0883         H7-C5=1.0890         H8-C5=1.0888         C9-P1=1.8417         C9-C10=1.3900        
C9-C11=1.3904        C10-C9=1.3900        C10-C12=1.3826       C10-H15=1.0810       C11-C9=1.3904        C11-C13=1.3834       
C11-H16=1.0814       C12-C10=1.3826       C12-C14=1.3854       C12-H17=1.0810       C13-C11=1.3834       C13-C14=1.3842       
C13-H18=1.0805       C14-C12=1.3854       C14-C13=1.3842       C14-H19=1.0803       H15-C10=1.0810       H16-C11=1.0814       
H17-C12=1.0810       H18-C13=1.0805       H19-C14=1.0803       C20-P1=1.8665        C20-H21=1.0931       C20-H22=1.0940       
C20-C23=1.5223       H21-C20=1.0931       H22-C20=1.0940       C23-C20=1.5223       C23-H24=1.0890       C23-H25=1.0883       
C23-H26=1.0888       H24-C23=1.0890       H25-C23=1.0883       H26-C23=1.0888       
 C  H  Rav=1.0874 sigma=0.0050  Rmin=1.0803  Rmax=1.0940    15
 C  C  Rav=1.4201 sigma=0.0591  Rmin=1.3826  Rmax=1.5223     8
 P  C  Rav=1.8582 sigma=0.0117  Rmin=1.8417  Rmax=1.8665     3
 
 selected bond angles (degree)
 --------------------
C9-P1-C2= 99.25                C20-P1-C2= 97.82               C20-P1-C9= 99.38               H3-C2-P1=106.74                
H4-C2-P1=110.47                H4-C2-H3=108.06                C5-C2-P1=110.91                C5-C2-H3=110.04                
C5-C2-H4=110.51                H6-C5-C2=110.45                H7-C5-C2=110.43                H7-C5-H6=108.16                
H8-C5-C2=110.71                H8-C5-H6=108.50                H8-C5-H7=108.51                C10-C9-P1=124.29               
C11-C9-P1=116.76               C11-C9-C10=118.95              C12-C10-C9=120.34              H15-C10-C9=120.49              
H15-C10-C12=119.17             
 
 selected dihedral angles (degree)
 ---------------------------------
H3-C2-P1-C9=188.49            H3-C2-P1-C20=289.39           H4-C2-P1-C9=305.74            H4-C2-P1-C20= 46.64           
C5-C2-P1-C9= 68.62            C5-C2-P1-C20=169.52           H6-C5-C2-P1= 57.07            H6-C5-C2-H3=299.20            
H6-C5-C2-H4=179.94            H7-C5-C2-P1=297.48            H7-C5-C2-H3=179.60            H7-C5-C2-H4= 60.34            
H8-C5-C2-P1=177.27            H8-C5-C2-H3= 59.39            H8-C5-C2-H4=300.13            C10-C9-P1-C2= 50.22           
C10-C9-P1-C20=310.62          C11-C9-P1-C2=230.27           C11-C9-P1-C20=130.68          C12-C10-C9-P1=180.06          
C12-C10-C9-C11=  0.00         H15-C10-C9-P1=  0.07          H15-C10-C9-C11=180.02         
           -------------------------------------------------
          |                Final Singlepoint                |
           -------------------------------------------------

          ...................................................
          :                      SETUP                      :
          :.................................................:
          :  # basis functions                  65          :
          :  # atomic orbitals                  64          :
          :  # shells                           38          :
          :  # electrons                        60          :
          :  max. iterations                  5000          :
          :  Hamiltonian                  GFN2-xTB          :
          :  restarted?                      false          :
          :  GBSA solvation                  false          :
          :  PC potential                    false          :
          :  electronic temp.          300.0000000     K    :
          :  accuracy                    0.0100000          :
          :  -> integral cutoff          0.4500000E+02      :
          :  -> integral neglect         0.1000000E-09      :
          :  -> SCF convergence          0.1000000E-07 Eh   :
          :  -> wf. convergence          0.1000000E-05 e    :
          :  Broyden damping             0.4000000          :
          :  net charge                          0          :
          :  unpaired electrons                  0          :
          ...................................................

 iter      E             dE          RMSdq      gap      omega  full diag
   1    -32.0779740 -0.320780E+02  0.102E-06    3.64       0.0  T
   2    -32.0779740 -0.568434E-13  0.598E-07    3.64   32782.3  T
   3    -32.0779740  0.142109E-13  0.354E-07    3.64   55455.0  T

   *** convergence criteria satisfied after 3 iterations ***

         #    Occupation            Energy/Eh            Energy/eV
      -------------------------------------------------------------
         1        2.0000           -0.6581229             -17.9084
       ...           ...                  ...                  ...
        24        2.0000           -0.4364960             -11.8777
        25        2.0000           -0.4232544             -11.5173
        26        2.0000           -0.4194627             -11.4142
        27        2.0000           -0.4052588             -11.0277
        28        2.0000           -0.4045274             -11.0078
        29        2.0000           -0.3970034             -10.8030
        30        2.0000           -0.3672951              -9.9946 (HOMO)
        31                         -0.2336355              -6.3575 (LUMO)
        32                         -0.2230298              -6.0690
        33                         -0.1548773              -4.2144
        34                         -0.1507597              -4.1024
        35                         -0.0927983              -2.5252
       ...                                ...                  ...
        64                          0.7796962              21.2166
      -------------------------------------------------------------
                  HL-Gap            0.1336596 Eh            3.6371 eV
             Fermi-level           -0.3004653 Eh           -8.1761 eV

 SCC (total)                   0 d,  0 h,  0 min,  0.073 sec
 SCC setup                      ...        0 min,  0.000 sec (  0.078%)
 Dispersion                     ...        0 min,  0.000 sec (  0.086%)
 classical contributions        ...        0 min,  0.000 sec (  0.012%)
 integral evaluation            ...        0 min,  0.001 sec (  0.953%)
 iterations                     ...        0 min,  0.070 sec ( 96.312%)
 molecular gradient             ...        0 min,  0.002 sec (  2.456%)
 printout                       ...        0 min,  0.000 sec (  0.081%)

         :::::::::::::::::::::::::::::::::::::::::::::::::::::
         ::                     SUMMARY                     ::
         :::::::::::::::::::::::::::::::::::::::::::::::::::::
         :: total energy             -31.557022126876 Eh    ::
         :: gradient norm              0.000036564523 Eh/a0 ::
         :: HOMO-LUMO gap              3.637063667927 eV    ::
         ::.................................................::
         :: SCC energy               -32.077706655169 Eh    ::
         :: -> isotropic ES            0.004211898971 Eh    ::
         :: -> anisotropic ES          0.005888881647 Eh    ::
         :: -> anisotropic XC          0.021485052685 Eh    ::
         :: -> dispersion             -0.024035691126 Eh    ::
         :: repulsion energy           0.520684528293 Eh    ::
         :: add. restraining           0.000000000000 Eh    ::
         :: total charge               0.000000000000 e     ::
         :::::::::::::::::::::::::::::::::::::::::::::::::::::

           ------------------------------------------------- 
          |                Numerical Hessian                |
           ------------------------------------------------- 
step length          :   0.00500
SCC accuracy         :   0.30000
Hessian scale factor :   1.00000
frozen atoms in %    :   0.00000    0
RMS gradient         :   0.00004
estimated CPU  time      1.13 min
estimated wall time      0.14 min

writing file <hessian>.

 projected vibrational frequencies (cm⁻¹)
eigval :       -0.00    -0.00    -0.00    -0.00     0.00     0.00
eigval :       17.89    50.31    65.02   121.05   122.30   164.11
eigval :      199.60   213.93   232.27   295.30   318.43   320.44
eigval :      363.62   401.32   450.37   586.10   657.50   668.69
eigval :      687.43   704.80   735.16   753.31   780.15   875.04
eigval :      899.16   926.87   932.99   969.38   975.72   998.58
eigval :     1003.61  1020.14  1062.82  1082.78  1085.09  1116.95
eigval :     1121.59  1181.68  1198.84  1217.02  1229.79  1244.60
eigval :     1255.33  1278.90  1315.81  1410.38  1411.01  1423.54
eigval :     1442.68  1449.87  1458.16  1497.18  1497.30  1501.62
eigval :     1501.82  1579.96  1589.60  2931.59  2936.89  2944.69
eigval :     2951.28  3013.97  3014.42  3019.53  3019.59  3029.53
eigval :     3030.64  3061.38  3063.75  3070.76  3076.96  3087.69
           -------------------------------------------------
          |                Property Printout                |
           -------------------------------------------------

    * Orbital Energies and Occupations

         #    Occupation            Energy/Eh            Energy/eV
      -------------------------------------------------------------
         1        2.0000           -0.6581229             -17.9084
       ...           ...                  ...                  ...
        18        2.0000           -0.4773484             -12.9893
        19        2.0000           -0.4746436             -12.9157
        20        2.0000           -0.4704298             -12.8010
        21        2.0000           -0.4563041             -12.4167
        22        2.0000           -0.4562094             -12.4141
        23        2.0000           -0.4423107             -12.0359
        24        2.0000           -0.4364960             -11.8777
        25        2.0000           -0.4232544             -11.5173
        26        2.0000           -0.4194627             -11.4142
        27        2.0000           -0.4052588             -11.0277
        28        2.0000           -0.4045274             -11.0078
        29        2.0000           -0.3970034             -10.8030
        30        2.0000           -0.3672951              -9.9946 (HOMO)
        31                         -0.2336355              -6.3575 (LUMO)
        32                         -0.2230298              -6.0690
        33                         -0.1548773              -4.2144
        34                         -0.1507597              -4.1024
        35                         -0.0927983              -2.5252
        36                          0.0046200               0.1257
        37                          0.0547838               1.4907
        38                          0.0923294               2.5124
        39                          0.1110248               3.0211
        40                          0.1352395               3.6801
        41                          0.1375698               3.7435
       ...                                ...                  ...
        64                          0.7796962              21.2166
      -------------------------------------------------------------
                  HL-Gap            0.1336596 Eh            3.6371 eV
             Fermi-level           -0.3004653 Eh           -8.1761 eV

     #   Z          covCN         q      C6AA      α(0)
     1  15 P        3.056    -0.118   165.593    23.117
     2   6 C        3.748    -0.047    21.475     6.610
     3   1 H        0.926     0.039     2.468     2.457
     4   1 H        0.925     0.042     2.419     2.432
     5   6 C        3.821    -0.096    22.317     6.723
     6   1 H        0.925     0.042     2.428     2.437
     7   1 H        0.925     0.036     2.501     2.473
     8   1 H        0.925     0.033     2.546     2.495
     9   6 C        2.916     0.011    27.767     8.641
    10   6 C        2.961    -0.027    28.681     8.784
    11   6 C        3.016    -0.030    28.728     8.792
    12   6 C        2.919    -0.031    28.784     8.798
    13   6 C        2.918    -0.030    28.749     8.792
    14   6 C        2.920    -0.029    28.734     8.790
    15   1 H        0.926     0.032     2.563     2.504
    16   1 H        0.925     0.040     2.451     2.448
    17   1 H        0.926     0.028     2.619     2.531
    18   1 H        0.926     0.030     2.588     2.516
    19   1 H        0.926     0.029     2.603     2.523
    20   6 C        3.748    -0.047    21.474     6.610
    21   1 H        0.925     0.042     2.420     2.433
    22   1 H        0.926     0.039     2.469     2.457
    23   6 C        3.821    -0.096    22.316     6.723
    24   1 H        0.925     0.036     2.501     2.473
    25   1 H        0.925     0.042     2.428     2.437
    26   1 H        0.925     0.033     2.546     2.495

 Mol. C6AA /au·bohr⁶  :       7598.929695
 Mol. C8AA /au·bohr⁸  :     202574.427010
 Mol. α(0) /au        :        139.490191


Wiberg/Mayer (AO) data.
largest (>0.10) Wiberg bond orders for each atom

 ---------------------------------------------------------------------------
     #   Z sym  total        # sym  WBO       # sym  WBO       # sym  WBO
 ---------------------------------------------------------------------------
     1  15 P    3.349 --    20 C    1.024     2 C    1.024     9 C    1.007
     2   6 C    3.993 --     1 P    1.024     5 C    1.017     3 H    0.958
                             4 H    0.951
     3   1 H    0.998 --     2 C    0.958
     4   1 H    0.998 --     2 C    0.951
     5   6 C    3.995 --     2 C    1.017     6 H    0.985     8 H    0.984
                             7 H    0.984
     6   1 H    0.998 --     5 C    0.985
     7   1 H    0.999 --     5 C    0.984
     8   1 H    0.999 --     5 C    0.984
     9   6 C    3.983 --    11 C    1.408    10 C    1.400     1 P    1.007
                            14 C    0.108
    10   6 C    3.993 --    12 C    1.450     9 C    1.400    15 H    0.961
                            13 C    0.111
    11   6 C    3.992 --    13 C    1.443     9 C    1.408    16 H    0.964
                            12 C    0.108
    12   6 C    3.993 --    10 C    1.450    14 C    1.432    17 H    0.970
                            11 C    0.108
    13   6 C    3.992 --    11 C    1.443    14 C    1.441    18 H    0.970
                            10 C    0.111
    14   6 C    3.985 --    13 C    1.441    12 C    1.432    19 H    0.971
                             9 C    0.108
    15   1 H    0.999 --    10 C    0.961
    16   1 H    0.998 --    11 C    0.964
    17   1 H    0.999 --    12 C    0.970
    18   1 H    0.999 --    13 C    0.970
    19   1 H    0.999 --    14 C    0.971
    20   6 C    3.993 --     1 P    1.024    23 C    1.017    22 H    0.958
                            21 H    0.951
    21   1 H    0.998 --    20 C    0.951
    22   1 H    0.998 --    20 C    0.958
    23   6 C    3.995 --    20 C    1.017    26 H    0.985    25 H    0.984
                            24 H    0.984
    24   1 H    0.999 --    23 C    0.984
    25   1 H    0.998 --    23 C    0.984
    26   1 H    0.999 --    23 C    0.985
 ---------------------------------------------------------------------------

Topologies differ in total number of bonds
Writing topology from bond orders to xtbtopo.mol

molecular dipole:
                 x           y           z       tot (Debye)
 q only:       -0.100      -0.076       0.203
   full:       -0.139      -0.230       0.583       1.633
molecular quadrupole (traceless):
                xx          xy          yy          xz          yz          zz
 q only:        0.976      -0.072       1.326       1.258       0.513      -2.303
  q+dip:        5.165      -1.282      -0.219       3.530      -1.400      -4.946
   full:        4.125      -1.122       2.501       3.821       0.791      -6.626

           -------------------------------------------------
          |                Geometry Summary                 |
           -------------------------------------------------

      molecular mass/u    :      166.2002322
   center of mass at/Å    :        2.6855421      -0.7787919      -2.0582570
  moments of inertia/u·Å² :        0.4040882E+03   0.6825680E+03   0.8622794E+03
rotational constants/cm⁻¹ :        0.4171770E-01   0.2469737E-01   0.1955008E-01

 * 25 selected distances

     #   Z          #   Z                                           value/Å
     1  15 P        2   6 C                                       1.8665079 (max)
     2   6 C        3   1 H                                       1.0939381
     2   6 C        4   1 H                                       1.0931391
     2   6 C        5   6 C                                       1.5223403
     5   6 C        6   1 H                                       1.0882592
     5   6 C        7   1 H                                       1.0890137
     5   6 C        8   1 H                                       1.0888046
     9   6 C       10   6 C                                       1.3900279
     9   6 C       11   6 C                                       1.3904434
    10   6 C       12   6 C                                       1.3826019
    11   6 C       13   6 C                                       1.3833957
    12   6 C       14   6 C                                       1.3854455
    13   6 C       14   6 C                                       1.3842126
    10   6 C       15   1 H                                       1.0809971
    11   6 C       16   1 H                                       1.0813703
    12   6 C       17   1 H                                       1.0809978
    13   6 C       18   1 H                                       1.0805173
    14   6 C       19   1 H                                       1.0803263 (min)
     1  15 P       20   6 C                                       1.8664673
    20   6 C       21   1 H                                       1.0931041
    20   6 C       22   1 H                                       1.0939720
    20   6 C       23   6 C                                       1.5223435
    23   6 C       24   1 H                                       1.0890082
    23   6 C       25   1 H                                       1.0882680
    23   6 C       26   1 H                                       1.0888202

 * 3 distinct bonds (by element types)

   Z      Z             #   av. dist./Å        max./Å        min./Å
   1 H    6 C          15     1.0873691     1.0939720     1.0803263
   6 C    6 C           8     1.4201014     1.5223435     1.3826019
   6 C   15 P           2     1.8664876     1.8665079     1.8664673

           -------------------------------------------------
          |               Frequency Printout                |
           -------------------------------------------------
 projected vibrational frequencies (cm⁻¹)
eigval :       -0.00    -0.00    -0.00    -0.00     0.00     0.00
eigval :       17.89    50.31    65.02   121.05   122.30   164.11
eigval :      199.60   213.93   232.27   295.30   318.43   320.44
eigval :      363.62   401.32   450.37   586.10   657.50   668.69
eigval :      687.43   704.80   735.16   753.31   780.15   875.04
eigval :      899.16   926.87   932.99   969.38   975.72   998.58
eigval :     1003.61  1020.14  1062.82  1082.78  1085.09  1116.95
eigval :     1121.59  1181.68  1198.84  1217.02  1229.79  1244.60
eigval :     1255.33  1278.90  1315.81  1410.38  1411.01  1423.54
eigval :     1442.68  1449.87  1458.16  1497.18  1497.30  1501.62
eigval :     1501.82  1579.96  1589.60  2931.59  2936.89  2944.69
eigval :     2951.28  3013.97  3014.42  3019.53  3019.59  3029.53
eigval :     3030.64  3061.38  3063.75  3070.76  3076.96  3087.69
 reduced masses (amu)
   1: 11.23   2: 15.07   3: 13.07   4: 12.77   5: 14.67   6: 10.78   7:  9.53   8:  9.92
   9:  8.93  10:  7.12  11: 10.84  12:  6.90  13:  5.93  14:  5.27  15:  6.32  16: 10.37
  17: 12.84  18: 14.04  19:  8.83  20: 20.93  21: 10.12  22: 11.18  23: 10.31  24: 12.37
  25: 16.42  26: 16.18  27:  2.77  28:  4.02  29:  4.80  30:  3.30  31:  3.54  32:  4.19
  33:  3.01  34: 11.09  35:  2.22  36:  3.66  37:  2.97  38:  4.29  39:  9.72  40:  7.84
  41:  9.40  42:  7.66  43:  5.37  44:  1.33  45:  1.92  46:  3.62  47:  3.38  48:  4.54
  49:  4.27  50:  3.43  51: 11.95  52:  2.91  53:  2.96  54:  8.59  55:  2.03  56:  2.65
  57:  7.80  58:  1.52  59:  1.52  60:  1.56  61:  1.56  62: 11.45  63: 11.46  64:  1.95
  65:  1.96  66:  1.53  67:  1.50  68:  1.92  69:  1.91  70:  1.81  71:  1.80  72:  1.44
  73:  1.42  74:  1.76  75:  1.79  76:  1.82  77:  1.86  78:  1.91
 IR intensities (km·mol⁻¹)
   1:  0.22   2:  0.08   3:  0.04   4:  0.07   5:  0.02   6:  0.03   7:  0.07   8:  0.06
   9:  0.01  10:  0.10  11:  0.19  12:  0.41  13:  0.22  14:  0.17  15:  0.57  16:  0.16
  17:  0.26  18:  0.07  19:  0.01  20:  6.13  21:  2.24  22:  0.15  23:  0.39  24:  7.21
  25: 36.53  26: 28.02  27: 17.84  28:  0.08  29: 36.92  30:  0.01  31:  0.01  32:  0.02
  33:  0.00  34:  0.94  35:  4.21  36:  3.75  37:  2.56  38:  0.41  39:  6.61  40:  0.29
  41:  0.39  42:  4.90  43:  3.99  44:  0.02  45:  0.61  46:  0.54  47:  3.48  48:  6.29
  49:  7.55  50:  1.54  51:  0.98  52:  3.97  53:  0.10  54:  1.92  55:  0.25  56:  0.41
  57:  0.54  58:  0.52  59:  4.37  60:  0.53  61:  1.88  62:  0.75  63:  0.33  64:  1.36
  65: 49.24  66:  3.87  67: 39.07  68: 51.02  69: 47.49  70: 49.12  71: 14.05  72: 10.29
  73: 21.57  74:  9.97  75:  8.81  76: 12.42  77: 82.51  78: 62.21
 Raman intensities (Ä⁴*amu⁻¹)
   1:  0.00   2:  0.00   3:  0.00   4:  0.00   5:  0.00   6:  0.00   7:  0.00   8:  0.00
   9:  0.00  10:  0.00  11:  0.00  12:  0.00  13:  0.00  14:  0.00  15:  0.00  16:  0.00
  17:  0.00  18:  0.00  19:  0.00  20:  0.00  21:  0.00  22:  0.00  23:  0.00  24:  0.00
  25:  0.00  26:  0.00  27:  0.00  28:  0.00  29:  0.00  30:  0.00  31:  0.00  32:  0.00
  33:  0.00  34:  0.00  35:  0.00  36:  0.00  37:  0.00  38:  0.00  39:  0.00  40:  0.00
  41:  0.00  42:  0.00  43:  0.00  44:  0.00  45:  0.00  46:  0.00  47:  0.00  48:  0.00
  49:  0.00  50:  0.00  51:  0.00  52:  0.00  53:  0.00  54:  0.00  55:  0.00  56:  0.00
  57:  0.00  58:  0.00  59:  0.00  60:  0.00  61:  0.00  62:  0.00  63:  0.00  64:  0.00
  65:  0.00  66:  0.00  67:  0.00  68:  0.00  69:  0.00  70:  0.00  71:  0.00  72:  0.00
  73:  0.00  74:  0.00  75:  0.00  76:  0.00  77:  0.00  78:  0.00
 output can be read by thermo (or use thermo option).
 writing <g98.out> molden fake output.
 recommended (thermochemical) frequency scaling factor: 1.0
           -------------------------------------------------
          |             Thermodynamic Functions             |
           -------------------------------------------------

Molecule has the following symmetry elements: (sigma) 
It seems to be the Cs point group
cs  symmetry found (for desy threshold:  0.10E+00) used in thermo

          ...................................................
          :                      SETUP                      :
          :.................................................:
          :  # frequencies                          72      :
          :  # imaginary freq.                       0      :
          :  linear?                             false      :
          :  only rotor calc.                    false      :
          :  symmetry                               cs      :
          :  rotational number                       1      :
          :  scaling factor                  1.0000000      :
          :  rotor cutoff                   50.0000000 cm⁻¹ :
          :  imag. cutoff                  -20.0000000 cm⁻¹ :
          :.................................................:

    mode    ω/cm⁻¹     T·S(HO)/kcal·mol⁻¹    T·S(FR)/kcal·mol⁻¹   T·S(vib)
   ------------------------------------------------------------------------
       1     17.89    -2.04389 (  1.61%)    -1.36054 ( 98.39%)    -1.37157
       2     50.31    -1.43263 ( 50.62%)    -1.05455 ( 49.38%)    -1.24595
       3     65.02    -1.28170 ( 74.09%)    -0.97864 ( 25.91%)    -1.20316
       4    121.05    -0.91936 ( 97.17%)    -0.79456 (  2.83%)    -0.91583
       5    122.30    -0.91342 ( 97.28%)    -0.79150 (  2.72%)    -0.91011
       6    164.11    -0.74594 ( 99.15%)    -0.70442 (  0.85%)    -0.74558
       7    199.60    -0.63707 ( 99.61%)    -0.64642 (  0.39%)    -0.63710
       8    213.93    -0.59926 ( 99.70%)    -0.62590 (  0.30%)    -0.59933
       9    232.27    -0.55496 ( 99.79%)    -0.60153 (  0.21%)    -0.55506
      10    295.30    -0.43035 ( 99.92%)    -0.53041 (  0.08%)    -0.43043
   ------------------------------------------------------------------------

   temp. (K)  partition function   enthalpy   heat capacity  entropy
                                   cal/mol     cal/K/mol   cal/K/mol   J/K/mol
 298.15  VIB  0.381E+05             6235.740     39.143     38.708
         ROT  0.118E+07              888.752      2.981     30.762
         INT  0.448E+11             7124.492     42.124     69.469
         TR   0.207E+28             1481.254      4.968     41.214
         TOT                        8605.7460    47.0917   110.6828   463.0967

       T/K    H(0)-H(T)+PV         H(T)/Eh          T*S/Eh         G(T)/Eh
   ------------------------------------------------------------------------
    298.15    0.137141E-01    0.232231E+00    0.525890E-01    0.179642E+00
   ------------------------------------------------------------------------

         :::::::::::::::::::::::::::::::::::::::::::::::::::::
         ::                  THERMODYNAMIC                  ::
         :::::::::::::::::::::::::::::::::::::::::::::::::::::
         :: total free energy         -31.377380563224 Eh   ::
         ::.................................................::
         :: total energy              -31.557022126876 Eh   ::
         :: zero point energy           0.218516392416 Eh   ::
         :: G(RRHO) w/o ZPVE           -0.038874828764 Eh   ::
         :: G(RRHO) contrib.            0.179641563652 Eh   ::
         :::::::::::::::::::::::::::::::::::::::::::::::::::::

optimized geometry written to: xtbopt.xyz


           -------------------------------------------------
          | TOTAL ENERGY              -31.557022126876 Eh   |
          | TOTAL ENTHALPY            -31.324791605311 Eh   |
          | TOTAL FREE ENERGY         -31.377380563224 Eh   |
          | GRADIENT NORM               0.000036563810 Eh/α |
          | HOMO-LUMO GAP               3.637063642537 eV   |
           -------------------------------------------------

------------------------------------------------------------------------
 * finished run on 2025/07/14 at 11:29:35.530     
------------------------------------------------------------------------
 total:
 * wall-time:     0 d,  0 h,  0 min,  5.224 sec
 *  cpu-time:     0 d,  0 h,  0 min, 49.008 sec
 * ratio c/w:     9.382 speedup
 SCF:
 * wall-time:     0 d,  0 h,  0 min,  0.087 sec
 *  cpu-time:     0 d,  0 h,  0 min,  0.978 sec
 * ratio c/w:    11.229 speedup
 ANC optimizer:
 * wall-time:     0 d,  0 h,  0 min,  1.795 sec
 *  cpu-time:     0 d,  0 h,  0 min, 21.422 sec
 * ratio c/w:    11.937 speedup
 analytical hessian:
 * wall-time:     0 d,  0 h,  0 min,  3.328 sec
 *  cpu-time:     0 d,  0 h,  0 min, 26.481 sec
 * ratio c/w:     7.958 speedup

