      -----------------------------------------------------------      
     |                   =====================                   |     
     |                           x T B                           |     
     |                   =====================                   |     
     |                         S. Grimme                         |     
     |          Mulliken Center for Theoretical Chemistry        |     
     |                    University of Bonn                     |     
      -----------------------------------------------------------      

   * xtb version 6.7.0 (08769fc) compiled by 'albert@albert-system' on 2024-03-04

   xtb is free software: you can redistribute it and/or modify it under
   the terms of the GNU Lesser General Public License as published by
   the Free Software Foundation, either version 3 of the License, or
   (at your option) any later version.
   
   xtb is distributed in the hope that it will be useful,
   but WITHOUT ANY WARRANTY; without even the implied warranty of
   MERCHANTABILITY or FITNESS FOR A PARTICULAR PURPOSE.  See the
   GNU Lesser General Public License for more details.
   
   Cite this work as:
   * C. Bannwarth, E. Caldeweyher, S. Ehlert, A. Hansen, P. Pracht,
     J. Seibert, S. Spicher, S. Grimme, WIREs Comput. Mol. Sci., 2020, 11,
     e01493. DOI: 10.1002/wcms.1493
   
   for GFN2-xTB:
   * C. Bannwarth, S. Ehlert and S. Grimme., J. Chem. Theory Comput., 2019,
     15, 1652-1671. DOI: 10.1021/acs.jctc.8b01176
   for GFN1-xTB:
   * S. Grimme, C. Bannwarth, P. Shushkov, J. Chem. Theory Comput., 2017,
     13, 1989-2009. DOI: 10.1021/acs.jctc.7b00118
   for GFN0-xTB:
   * P. Pracht, E. Caldeweyher, S. Ehlert, S. Grimme, ChemRxiv, 2019, preprint.
     DOI: 10.26434/chemrxiv.8326202.v1
   for GFN-FF:
   * S. Spicher and S. Grimme, Angew. Chem. Int. Ed., 2020, 59, 15665-15673.
     DOI: 10.1002/anie.202004239
   
   for ALPB and GBSA implicit solvation:
   * S. Ehlert, M. Stahn, S. Spicher, S. Grimme, J. Chem. Theory Comput.,
     2021, 17, 4250-4261. DOI: 10.1021/acs.jctc.1c00471
   
   for ddCOSMO and CPCM-X implicit solvation:
   * M. Stahn, S. Ehlert, S. Grimme, J. Phys. Chem. A,
     2023, XX, XXXX-XXXX. DOI: 10.1021/acs.jpca.3c04382
   
   for DFT-D4:
   * E. Caldeweyher, C. Bannwarth and S. Grimme, J. Chem. Phys., 2017,
     147, 034112. DOI: 10.1063/1.4993215
   * E. Caldeweyher, S. Ehlert, A. Hansen, H. Neugebauer, S. Spicher,
     C. Bannwarth and S. Grimme, J. Chem. Phys., 2019, 150, 154122.
     DOI: 10.1063/1.5090222
   * E. Caldeweyher, J.-M. Mewes, S. Ehlert and S. Grimme, Phys. Chem. Chem. Phys.
     2020, 22, 8499-8512. DOI: 10.1039/D0CP00502A
   
   for sTDA-xTB:
   * S. Grimme and C. Bannwarth, J. Chem. Phys., 2016, 145, 054103.
     DOI: 10.1063/1.4959605
   
   in the mass-spec context:
   * V. Asgeirsson, C. Bauer and S. Grimme, Chem. Sci., 2017, 8, 4879.
     DOI: 10.1039/c7sc00601b
   * J. Koopman and S. Grimme, ACS Omega 2019, 4, 12, 15120-15133.
     DOI: 10.1021/acsomega.9b02011
   
   for metadynamics refer to:
   * S. Grimme, J. Chem. Theory Comput., 2019, 155, 2847-2862
     DOI: 10.1021/acs.jctc.9b00143
   
   for SPH calculations refer to:
   * S. Spicher and S. Grimme, J. Chem. Theory Comput., 2021, 17, 1701-1714
     DOI: 10.1021/acs.jctc.0c01306
   
   for ONIOM refer to:
   * C. Plett, A. Katbashev, S. Ehlert, S. Grimme, M. Bursch,
     Phys. Chem. Chem. Phys., 2023, 25, 17860-17868. DOI: 10.1039/D3CP02178E
   
   for DIPRO refer to:
   * J. Kohn, N. Gildemeister, S. Grimme, D. Fazzi, A. Hansen,
     J. Chem. Phys., 2023, just accepted.
   
   for PTB refer to:
   * S. Grimme, M. Mueller, A. Hansen, J. Chem. Phys., 2023, 158, 124111.
     DOI: 10.1063/5.0137838
   
   with help from (in alphabetical order)
   P. Atkinson, C. Bannwarth, F. Bohle, G. Brandenburg, E. Caldeweyher
   M. Checinski, S. Dohm, S. Ehlert, S. Ehrlich, I. Gerasimov, C. Hölzer
   A. Katbashev, J. Kohn, J. Koopman, C. Lavigne, S. Lehtola, F. März, M. Müller,
   F. Musil, H. Neugebauer, J. Pisarek, C. Plett, P. Pracht, F. Pultar,
   J. Seibert, P. Shushkov, S. Spicher, M. Stahn, M. Steiner, T. Strunk,
   J. Stückrath, T. Rose, and J. Unsleber
   
 * started run on 2025/07/14 at 11:28:36.946     
   ID    Z sym.   atoms
    1   15 P      1
    2    6 C      2, 5, 9-14, 20, 23
    3    1 H      3, 4, 6-8, 15-19, 21, 22, 24-26

           -------------------------------------------------
          |                Calculation Setup                |
           -------------------------------------------------

          program call               : /home/minenky/programs/xtb/xtb-dist/bin/xtb m1_00_PEt2Ph-PBE0-D3-TZ-uniMM_24.xyz --charge 0 --T --ohess extreme --cycles 5000 --acc 0.01 --iterations 5000
          coordinate file            : m1_00_PEt2Ph-PBE0-D3-TZ-uniMM_24.xyz
          omp threads                :                    12

########################################################################
[WARNING] Please study the warnings concerning your input carefully
-1- prog_main_parseArguments: Unknown option '--T' provided
########################################################################

           -------------------------------------------------
          |                 G F N 2 - x T B                 |
           -------------------------------------------------

        Reference                      10.1021/acs.jctc.8b01176
      * Hamiltonian:
        H0-scaling (s, p, d)           1.850000    2.230000    2.230000
        zeta-weighting                 0.500000
      * Dispersion:
        s8                             2.700000
        a1                             0.520000
        a2                             5.000000
        s9                             5.000000
      * Repulsion:
        kExp                           1.500000    1.000000
        rExp                           1.000000
      * Coulomb:
        alpha                          2.000000
        third order                    shell-resolved
        anisotropic                    true
        a3                             3.000000
        a5                             4.000000
        cn-shift                       1.200000
        cn-exp                         4.000000
        max-rad                        5.000000


          ...................................................
          :                      SETUP                      :
          :.................................................:
          :  # basis functions                  65          :
          :  # atomic orbitals                  64          :
          :  # shells                           38          :
          :  # electrons                        60          :
          :  max. iterations                  5000          :
          :  Hamiltonian                  GFN2-xTB          :
          :  restarted?                      false          :
          :  GBSA solvation                  false          :
          :  PC potential                    false          :
          :  electronic temp.          300.0000000     K    :
          :  accuracy                    0.0100000          :
          :  -> integral cutoff          0.4500000E+02      :
          :  -> integral neglect         0.1000000E-09      :
          :  -> SCF convergence          0.1000000E-07 Eh   :
          :  -> wf. convergence          0.1000000E-05 e    :
          :  Broyden damping             0.4000000          :
          :  net charge                          0          :
          :  unpaired electrons                  0          :
          ...................................................

 iter      E             dE          RMSdq      gap      omega  full diag
   1    -32.0154072 -0.320154E+02  0.366E+00    3.95       0.0  T
   2    -32.0594956 -0.440884E-01  0.216E+00    3.56       1.0  T
   3    -32.0592754  0.220217E-03  0.852E-01    3.33       1.0  T
   4    -32.0604318 -0.115643E-02  0.276E-01    3.38       1.0  T
   5    -32.0615808 -0.114902E-02  0.122E-01    3.41       1.0  T
   6    -32.0617997 -0.218908E-03  0.439E-02    3.40       1.0  T
   7    -32.0618154 -0.156896E-04  0.146E-02    3.40       1.3  T
   8    -32.0618163 -0.884360E-06  0.618E-03    3.40       3.2  T
   9    -32.0618166 -0.295035E-06  0.147E-03    3.40      13.3  T
  10    -32.0618166 -0.288192E-07  0.508E-04    3.40      38.6  T
  11    -32.0618166 -0.436231E-09  0.247E-04    3.40      79.5  T
  12    -32.0618166 -0.499540E-09  0.611E-05    3.40     320.8  T
  13    -32.0618166 -0.595435E-11  0.259E-05    3.40     756.1  T
  14    -32.0618166 -0.135003E-11  0.642E-06    3.40    3056.4  T
  15    -32.0618166 -0.142109E-12  0.283E-06    3.40    6922.7  T

   *** convergence criteria satisfied after 15 iterations ***

         #    Occupation            Energy/Eh            Energy/eV
      -------------------------------------------------------------
         1        2.0000           -0.6600863             -17.9619
       ...           ...                  ...                  ...
        24        2.0000           -0.4357814             -11.8582
        25        2.0000           -0.4271540             -11.6235
        26        2.0000           -0.4151989             -11.2981
        27        2.0000           -0.4098714             -11.1532
        28        2.0000           -0.4029736             -10.9655
        29        2.0000           -0.4023757             -10.9492
        30        2.0000           -0.3549375              -9.6583 (HOMO)
        31                         -0.2298724              -6.2551 (LUMO)
        32                         -0.2227416              -6.0611
        33                         -0.1479198              -4.0251
        34                         -0.1458000              -3.9674
        35                         -0.0994675              -2.7066
       ...                                ...                  ...
        64                          0.7911885              21.5293
      -------------------------------------------------------------
                  HL-Gap            0.1250651 Eh            3.4032 eV
             Fermi-level           -0.2924050 Eh           -7.9567 eV

 SCC (total)                   0 d,  0 h,  0 min,  0.086 sec
 SCC setup                      ...        0 min,  0.000 sec (  0.145%)
 Dispersion                     ...        0 min,  0.000 sec (  0.142%)
 classical contributions        ...        0 min,  0.000 sec (  0.012%)
 integral evaluation            ...        0 min,  0.002 sec (  2.170%)
 iterations                     ...        0 min,  0.082 sec ( 95.362%)
 molecular gradient             ...        0 min,  0.002 sec (  2.063%)
 printout                       ...        0 min,  0.000 sec (  0.087%)

         :::::::::::::::::::::::::::::::::::::::::::::::::::::
         ::                     SUMMARY                     ::
         :::::::::::::::::::::::::::::::::::::::::::::::::::::
         :: total energy             -31.547079012992 Eh    ::
         :: gradient norm              0.039458237843 Eh/a0 ::
         :: HOMO-LUMO gap              3.403194446002 eV    ::
         ::.................................................::
         :: SCC energy               -32.061726085110 Eh    ::
         :: -> isotropic ES            0.004184616358 Eh    ::
         :: -> anisotropic ES          0.006508966264 Eh    ::
         :: -> anisotropic XC          0.021677098638 Eh    ::
         :: -> dispersion             -0.023154548127 Eh    ::
         :: repulsion energy           0.514647072118 Eh    ::
         :: add. restraining           0.000000000000 Eh    ::
         :: total charge               0.000000000000 e     ::
         :::::::::::::::::::::::::::::::::::::::::::::::::::::

      ----------------------------------------------------------- 
     |                   =====================                   |
     |                        A N C O P T                        |
     |                   =====================                   |
     |               Approximate Normal Coordinate               |
     |                Rational Function Optimizer                |
      ----------------------------------------------------------- 
      ----------------------------------------------------------- 
     |                   =====================                   |
     |                        A N C O P T                        |
     |                   =====================                   |
     |               Approximate Normal Coordinate               |
     |                Rational Function Optimizer                |
      ----------------------------------------------------------- 

          ...................................................
          :                      SETUP                      :
          :.................................................:
          :   optimization level           extreme          :
          :   max. optcycles                  5000          :
          :   ANC micro-cycles                  20          :
          :   degrees of freedom                72          :
          :.................................................:
          :   RF solver                   davidson          :
          :   write xtbopt.log                true          :
          :   linear?                        false          :
          :   energy convergence         0.5000000E-07 Eh   :
          :   grad. convergence          0.5000000E-04 Eh/α :
          :   maxmium RF displ.          1.0000000          :
          :   Hlow (freq-cutoff)         0.1000000E-01      :
          :   Hmax (freq-cutoff)         5.0000000          :
          :   S6 in model hess.         20.0000000          :
          ...................................................

generating ANC from model Hessian ...
Using Lindh-Hessian (1995)
 Shifting diagonal of input Hessian by   9.400793307003625E-003
 Lowest  eigenvalues of input Hessian
    0.000000    0.000000    0.000000    0.000000    0.000000    0.000000
    0.010000    0.010585    0.010748    0.010987    0.011905    0.012923
    0.015990    0.018007    0.018608    0.019141    0.022550    0.023855
 Highest eigenvalues
    1.347334    1.535663    1.562073    1.864548    1.966090    1.985935
 

........................................................................
.............................. CYCLE    1 ..............................
........................................................................

 iter      E             dE          RMSdq      gap      omega  full diag
   1    -32.0618166 -0.320618E+02  0.135E-06    3.40       0.0  T
   2    -32.0618166 -0.639488E-13  0.851E-07    3.40   23044.4  T
   3    -32.0618166  0.568434E-13  0.540E-07    3.40   36293.7  T
     SCC iter.                  ...        0 min,  0.072 sec
     gradient                   ...        0 min,  0.002 sec
 * total energy  :   -31.5470790 Eh     change       -0.2131628E-13 Eh
   gradient norm :     0.0394582 Eh/α   predicted     0.0000000E+00 (-100.00%)
   displ. norm   :     0.2918749 α      lambda       -0.6655201E-02
   maximum displ.:     0.1043434 α      in ANC's #9, #8, #21, ...

........................................................................
.............................. CYCLE    2 ..............................
........................................................................

 iter      E             dE          RMSdq      gap      omega  full diag
   1    -32.0665567 -0.320666E+02  0.432E-01    3.60       0.0  T
   2    -32.0667458 -0.189047E-03  0.217E-01    3.63       1.0  T
   3    -32.0667508 -0.508620E-05  0.672E-02    3.66       1.0  T
   4    -32.0667490  0.187786E-05  0.366E-02    3.65       1.0  T
   5    -32.0667705 -0.215296E-04  0.886E-03    3.65       2.2  T
   6    -32.0667714 -0.853763E-06  0.279E-03    3.65       7.0  T
   7    -32.0667714 -0.292688E-08  0.971E-04    3.65      20.2  T
   8    -32.0667714 -0.131963E-08  0.295E-04    3.65      66.5  T
   9    -32.0667714 -0.986780E-09  0.108E-04    3.65     181.7  T
  10    -32.0667714 -0.179362E-09  0.417E-05    3.65     470.7  T
  11    -32.0667714 -0.508038E-11  0.155E-05    3.65    1263.4  T
  12    -32.0667714 -0.145661E-11  0.441E-06    3.65    4445.5  T
  13    -32.0667714 -0.284217E-13  0.214E-06    3.65    9166.9  T
     SCC iter.                  ...        0 min,  0.075 sec
     gradient                   ...        0 min,  0.002 sec
 * total energy  :   -31.5503176 Eh     change       -0.3238624E-02 Eh
   gradient norm :     0.0124854 Eh/α   predicted    -0.3611176E-02 (  11.50%)
   displ. norm   :     0.1844993 α      lambda       -0.9265950E-03
   maximum displ.:     0.0853735 α      in ANC's #9, #3, #11, ...

........................................................................
.............................. CYCLE    3 ..............................
........................................................................

 iter      E             dE          RMSdq      gap      omega  full diag
   1    -32.0705651 -0.320706E+02  0.105E-01    3.63       0.0  T
   2    -32.0705697 -0.461809E-05  0.568E-02    3.62       1.0  T
   3    -32.0705687  0.104626E-05  0.140E-02    3.61       1.4  T
   4    -32.0705701 -0.138071E-05  0.582E-03    3.61       3.4  T
   5    -32.0705705 -0.402803E-06  0.165E-03    3.61      11.9  T
   6    -32.0705705 -0.530238E-07  0.713E-04    3.61      27.5  T
   7    -32.0705705 -0.141881E-08  0.197E-04    3.61      99.4  T
   8    -32.0705705 -0.125979E-10  0.889E-05    3.61     220.6  T
   9    -32.0705705 -0.805684E-10  0.274E-05    3.61     715.1  T
  10    -32.0705705 -0.810729E-11  0.133E-05    3.61    1472.1  T
  11    -32.0705705 -0.397904E-12  0.428E-06    3.61    4586.0  T
  12    -32.0705705 -0.120792E-12  0.143E-06    3.61   13736.0  T
     SCC iter.                  ...        0 min,  0.074 sec
     gradient                   ...        0 min,  0.002 sec
 * total energy  :   -31.5509333 Eh     change       -0.6156419E-03 Eh
   gradient norm :     0.0053475 Eh/α   predicted    -0.4798801E-03 ( -22.05%)
   displ. norm   :     0.2197332 α      lambda       -0.4167040E-03
   maximum displ.:     0.1078100 α      in ANC's #3, #2, #1, ...

........................................................................
.............................. CYCLE    4 ..............................
........................................................................

 iter      E             dE          RMSdq      gap      omega  full diag
   1    -32.0717521 -0.320718E+02  0.651E-02    3.61       0.0  T
   2    -32.0717536 -0.149039E-05  0.369E-02    3.61       1.0  T
   3    -32.0717530  0.573037E-06  0.112E-02    3.60       1.8  T
   4    -32.0717538 -0.828554E-06  0.252E-03    3.60       7.8  T
   5    -32.0717538 -0.237770E-07  0.131E-03    3.60      14.9  T
   6    -32.0717539 -0.399411E-07  0.512E-04    3.60      38.3  T
   7    -32.0717539 -0.712944E-09  0.123E-04    3.60     159.9  T
   8    -32.0717539 -0.195243E-09  0.499E-05    3.60     392.9  T
   9    -32.0717539 -0.600409E-11  0.266E-05    3.60     736.8  T
  10    -32.0717539 -0.411404E-11  0.843E-06    3.60    2327.5  T
  11    -32.0717539 -0.241585E-12  0.300E-06    3.60    6539.5  T
     SCC iter.                  ...        0 min,  0.074 sec
     gradient                   ...        0 min,  0.002 sec
 * total energy  :   -31.5512328 Eh     change       -0.2995648E-03 Eh
   gradient norm :     0.0032331 Eh/α   predicted    -0.2184205E-03 ( -27.09%)
   displ. norm   :     0.2486755 α      lambda       -0.2727474E-03
   maximum displ.:     0.1214655 α      in ANC's #3, #1, #2, ...

........................................................................
.............................. CYCLE    5 ..............................
........................................................................

 iter      E             dE          RMSdq      gap      omega  full diag
   1    -32.0717514 -0.320718E+02  0.595E-02    3.61       0.0  T
   2    -32.0717522 -0.814213E-06  0.348E-02    3.61       1.0  T
   3    -32.0717519  0.374581E-06  0.946E-03    3.61       2.1  T
   4    -32.0717524 -0.561882E-06  0.173E-03    3.61      11.4  T
   5    -32.0717524  0.285534E-08  0.103E-03    3.61      19.1  T
   6    -32.0717525 -0.195870E-07  0.359E-04    3.61      54.6  T
   7    -32.0717525 -0.320405E-09  0.106E-04    3.61     184.9  T
   8    -32.0717525 -0.925411E-10  0.391E-05    3.61     501.8  T
   9    -32.0717525 -0.405720E-11  0.201E-05    3.61     973.9  T
  10    -32.0717525 -0.327560E-11  0.643E-06    3.61    3051.3  T
  11    -32.0717525 -0.163425E-12  0.270E-06    3.61    7265.2  T
     SCC iter.                  ...        0 min,  0.083 sec
     gradient                   ...        0 min,  0.003 sec
 * total energy  :   -31.5514389 Eh     change       -0.2061049E-03 Eh
   gradient norm :     0.0047580 Eh/α   predicted    -0.1448084E-03 ( -29.74%)
   displ. norm   :     0.2627895 α      lambda       -0.2206874E-03
   maximum displ.:     0.1482438 α      in ANC's #1, #3, #2, ...

........................................................................
.............................. CYCLE    6 ..............................
........................................................................

 iter      E             dE          RMSdq      gap      omega  full diag
   1    -32.0714857 -0.320715E+02  0.644E-02    3.61       0.0  T
   2    -32.0714861 -0.431759E-06  0.379E-02    3.61       1.0  T
   3    -32.0714860  0.125293E-06  0.616E-03    3.61       3.2  T
   4    -32.0714862 -0.247573E-06  0.137E-03    3.61      14.3  T
   5    -32.0714862  0.238219E-08  0.655E-04    3.61      29.9  T
   6    -32.0714862 -0.588261E-08  0.273E-04    3.61      71.8  T
   7    -32.0714862 -0.228077E-09  0.686E-05    3.61     286.0  T
   8    -32.0714862 -0.238032E-10  0.319E-05    3.61     614.4  T
   9    -32.0714862 -0.111058E-10  0.105E-05    3.61    1866.7  T
  10    -32.0714862 -0.121503E-11  0.480E-06    3.61    4082.2  T
  11    -32.0714862 -0.923706E-13  0.204E-06    3.61    9594.0  T
     SCC iter.                  ...        0 min,  0.075 sec
     gradient                   ...        0 min,  0.004 sec
 * total energy  :   -31.5516086 Eh     change       -0.1696552E-03 Eh
   gradient norm :     0.0043734 Eh/α   predicted    -0.1179679E-03 ( -30.47%)
   displ. norm   :     0.2504596 α      lambda       -0.1762376E-03
   maximum displ.:     0.1610143 α      in ANC's #1, #3, #2, ...

........................................................................
.............................. CYCLE    7 ..............................
........................................................................

 iter      E             dE          RMSdq      gap      omega  full diag
   1    -32.0714403 -0.320714E+02  0.709E-02    3.61       0.0  T
   2    -32.0714408 -0.447183E-06  0.413E-02    3.61       1.0  T
   3    -32.0714408 -0.172855E-07  0.347E-03    3.61       5.7  T
   4    -32.0714409 -0.567436E-07  0.158E-03    3.61      12.4  T
   5    -32.0714409 -0.237350E-07  0.605E-04    3.61      32.4  T
   6    -32.0714409 -0.139092E-08  0.334E-04    3.61      58.8  T
   7    -32.0714409 -0.947395E-09  0.576E-05    3.61     340.2  T
   8    -32.0714409 -0.318252E-10  0.234E-05    3.61     837.8  T
   9    -32.0714409 -0.343192E-11  0.101E-05    3.61    1936.3  T
  10    -32.0714409 -0.866862E-12  0.401E-06    3.61    4892.2  T
  11    -32.0714409 -0.106581E-12  0.148E-06    3.61   13283.3  T
     SCC iter.                  ...        0 min,  0.073 sec
     gradient                   ...        0 min,  0.002 sec
 * total energy  :   -31.5517453 Eh     change       -0.1367235E-03 Eh
   gradient norm :     0.0031272 Eh/α   predicted    -0.9364852E-04 ( -31.51%)
   displ. norm   :     0.2141781 α      lambda       -0.1375106E-03
   maximum displ.:     0.1514808 α      in ANC's #1, #4, #2, ...

........................................................................
.............................. CYCLE    8 ..............................
........................................................................

 iter      E             dE          RMSdq      gap      omega  full diag
   1    -32.0717195 -0.320717E+02  0.721E-02    3.61       0.0  T
   2    -32.0717201 -0.588021E-06  0.417E-02    3.61       1.0  T
   3    -32.0717200  0.868996E-07  0.578E-03    3.61       3.4  T
   4    -32.0717202 -0.188924E-06  0.144E-03    3.61      13.6  T
   5    -32.0717202 -0.119487E-07  0.620E-04    3.61      31.6  T
   6    -32.0717202 -0.536048E-08  0.323E-04    3.61      60.7  T
   7    -32.0717202 -0.640973E-09  0.750E-05    3.61     261.3  T
   8    -32.0717202 -0.769163E-10  0.235E-05    3.61     834.8  T
   9    -32.0717202 -0.916600E-12  0.118E-05    3.61    1664.8  T
  10    -32.0717202 -0.160583E-11  0.368E-06    3.61    5323.4  T
  11    -32.0717202 -0.639488E-13  0.117E-06    3.61   16814.1  T
     SCC iter.                  ...        0 min,  0.073 sec
     gradient                   ...        0 min,  0.002 sec
 * total energy  :   -31.5518586 Eh     change       -0.1133155E-03 Eh
   gradient norm :     0.0026419 Eh/α   predicted    -0.7190973E-04 ( -36.54%)
   displ. norm   :     0.2035099 α      lambda       -0.1252270E-03
   maximum displ.:     0.1494150 α      in ANC's #1, #4, #2, ...

........................................................................
.............................. CYCLE    9 ..............................
........................................................................

 iter      E             dE          RMSdq      gap      omega  full diag
   1    -32.0720531 -0.320721E+02  0.745E-02    3.61       0.0  T
   2    -32.0720536 -0.565245E-06  0.432E-02    3.61       1.0  T
   3    -32.0720535  0.193682E-06  0.704E-03    3.61       2.8  T
   4    -32.0720538 -0.328424E-06  0.113E-03    3.61      17.4  T
   5    -32.0720538 -0.408361E-08  0.576E-04    3.61      34.1  T
   6    -32.0720538 -0.566653E-08  0.263E-04    3.61      74.5  T
   7    -32.0720538 -0.262460E-09  0.712E-05    3.61     275.3  T
   8    -32.0720538 -0.740314E-10  0.212E-05    3.61     927.0  T
   9    -32.0720538 -0.326850E-12  0.121E-05    3.61    1614.9  T
  10    -32.0720538 -0.170530E-11  0.331E-06    3.61    5920.8  T
  11    -32.0720538 -0.568434E-13  0.114E-06    3.61   17187.2  T
     SCC iter.                  ...        0 min,  0.073 sec
     gradient                   ...        0 min,  0.002 sec
 * total energy  :   -31.5519652 Eh     change       -0.1065806E-03 Eh
   gradient norm :     0.0028425 Eh/α   predicted    -0.6520745E-04 ( -38.82%)
   displ. norm   :     0.2180211 α      lambda       -0.1197853E-03
   maximum displ.:     0.1615799 α      in ANC's #1, #4, #2, ...

........................................................................
.............................. CYCLE   10 ..............................
........................................................................

 iter      E             dE          RMSdq      gap      omega  full diag
   1    -32.0721357 -0.320721E+02  0.789E-02    3.60       0.0  T
   2    -32.0721361 -0.420555E-06  0.462E-02    3.61       1.0  T
   3    -32.0721358  0.233026E-06  0.629E-03    3.61       3.1  T
   4    -32.0721362 -0.374167E-06  0.944E-04    3.61      20.8  T
   5    -32.0721362 -0.474031E-08  0.538E-04    3.61      36.5  T
   6    -32.0721362 -0.389962E-08  0.207E-04    3.61      94.6  T
   7    -32.0721362 -0.102936E-09  0.506E-05    3.61     387.4  T
   8    -32.0721362 -0.382272E-10  0.160E-05    3.61    1226.9  T
   9    -32.0721362 -0.412115E-12  0.928E-06    3.61    2114.0  T
  10    -32.0721362 -0.902389E-12  0.246E-06    3.61    7974.9  T
     SCC iter.                  ...        0 min,  0.073 sec
     gradient                   ...        0 min,  0.002 sec
 * total energy  :   -31.5520673 Eh     change       -0.1020818E-03 Eh
   gradient norm :     0.0028594 Eh/α   predicted    -0.6274044E-04 ( -38.54%)
   displ. norm   :     0.2255458 α      lambda       -0.1067983E-03
   maximum displ.:     0.1691399 α      in ANC's #1, #4, #2, ...

........................................................................
.............................. CYCLE   11 ..............................
........................................................................

 iter      E             dE          RMSdq      gap      omega  full diag
   1    -32.0721653 -0.320722E+02  0.779E-02    3.60       0.0  T
   2    -32.0721657 -0.346505E-06  0.457E-02    3.60       1.0  T
   3    -32.0721654  0.216041E-06  0.519E-03    3.60       3.8  T
   4    -32.0721658 -0.343974E-06  0.977E-04    3.60      20.1  T
   5    -32.0721658 -0.702354E-08  0.531E-04    3.60      36.9  T
   6    -32.0721658 -0.357895E-08  0.198E-04    3.60      99.1  T
   7    -32.0721658 -0.801847E-10  0.459E-05    3.60     426.9  T
   8    -32.0721658 -0.263611E-10  0.165E-05    3.60    1189.2  T
   9    -32.0721658 -0.299849E-11  0.819E-06    3.60    2394.7  T
  10    -32.0721658 -0.419220E-12  0.275E-06    3.60    7143.2  T
     SCC iter.                  ...        0 min,  0.073 sec
     gradient                   ...        0 min,  0.002 sec
 * total energy  :   -31.5521588 Eh     change       -0.9151724E-04 Eh
   gradient norm :     0.0025326 Eh/α   predicted    -0.5611624E-04 ( -38.68%)
   displ. norm   :     0.2250379 α      lambda       -0.9553661E-04
   maximum displ.:     0.1697689 α      in ANC's #1, #2, #4, ...

........................................................................
.............................. CYCLE   12 ..............................
........................................................................

 iter      E             dE          RMSdq      gap      omega  full diag
   1    -32.0721460 -0.320721E+02  0.727E-02    3.60       0.0  T
   2    -32.0721464 -0.309762E-06  0.426E-02    3.60       1.0  T
   3    -32.0721462  0.163758E-06  0.402E-03    3.60       4.9  T
   4    -32.0721465 -0.262153E-06  0.113E-03    3.60      17.4  T
   5    -32.0721465 -0.158354E-07  0.483E-04    3.60      40.6  T
   6    -32.0721465 -0.280916E-08  0.204E-04    3.60      96.0  T
   7    -32.0721465 -0.704361E-10  0.517E-05    3.60     379.1  T
   8    -32.0721465 -0.300702E-10  0.183E-05    3.60    1070.5  T
   9    -32.0721465 -0.410694E-11  0.808E-06    3.60    2426.0  T
  10    -32.0721465 -0.540012E-12  0.333E-06    3.60    5897.6  T
     SCC iter.                  ...        0 min,  0.073 sec
     gradient                   ...        0 min,  0.002 sec
 * total energy  :   -31.5522442 Eh     change       -0.8541173E-04 Eh
   gradient norm :     0.0021859 Eh/α   predicted    -0.5018802E-04 ( -41.24%)
   displ. norm   :     0.2628295 α      lambda       -0.1120598E-03
   maximum displ.:     0.1963029 α      in ANC's #1, #2, #4, ...

........................................................................
.............................. CYCLE   13 ..............................
........................................................................

 iter      E             dE          RMSdq      gap      omega  full diag
   1    -32.0721628 -0.320722E+02  0.798E-02    3.60       0.0  T
   2    -32.0721632 -0.409342E-06  0.467E-02    3.60       1.0  T
   3    -32.0721630  0.197946E-06  0.426E-03    3.60       4.6  T
   4    -32.0721633 -0.302217E-06  0.143E-03    3.60      13.7  T
   5    -32.0721633 -0.341129E-07  0.523E-04    3.60      37.5  T
   6    -32.0721633 -0.274821E-08  0.231E-04    3.60      84.9  T
   7    -32.0721633 -0.161059E-09  0.648E-05    3.60     302.6  T
   8    -32.0721633 -0.366853E-10  0.215E-05    3.60     910.5  T
   9    -32.0721633 -0.404299E-11  0.103E-05    3.60    1911.5  T
  10    -32.0721633 -0.100897E-11  0.419E-06    3.60    4683.4  T
  11    -32.0721633 -0.120792E-12  0.174E-06    3.60   11276.1  T
     SCC iter.                  ...        0 min,  0.073 sec
     gradient                   ...        0 min,  0.002 sec
 * total energy  :   -31.5523480 Eh     change       -0.1037598E-03 Eh
   gradient norm :     0.0022899 Eh/α   predicted    -0.5990449E-04 ( -42.27%)
   displ. norm   :     0.3653695 α      lambda       -0.1637259E-03
   maximum displ.:     0.2692690 α      in ANC's #1, #2, #3, ...

........................................................................
.............................. CYCLE   14 ..............................
........................................................................

 iter      E             dE          RMSdq      gap      omega  full diag
   1    -32.0717403 -0.320717E+02  0.107E-01    3.60       0.0  T
   2    -32.0717410 -0.750849E-06  0.630E-02    3.60       1.0  T
   3    -32.0717407  0.384578E-06  0.591E-03    3.60       3.3  T
   4    -32.0717412 -0.571230E-06  0.193E-03    3.60      10.2  T
   5    -32.0717413 -0.605921E-07  0.736E-04    3.60      26.7  T
   6    -32.0717413 -0.559908E-08  0.319E-04    3.60      61.4  T
   7    -32.0717413 -0.377206E-09  0.973E-05    3.60     201.6  T
   8    -32.0717413 -0.741380E-10  0.319E-05    3.60     614.7  T
   9    -32.0717413 -0.586198E-11  0.150E-05    3.60    1304.4  T
  10    -32.0717413 -0.171241E-11  0.548E-06    3.60    3581.5  T
  11    -32.0717413 -0.255795E-12  0.242E-06    3.60    8094.5  T
     SCC iter.                  ...        0 min,  0.073 sec
     gradient                   ...        0 min,  0.002 sec
 * total energy  :   -31.5524997 Eh     change       -0.1516586E-03 Eh
   gradient norm :     0.0030511 Eh/α   predicted    -0.9279248E-04 ( -38.81%)
   displ. norm   :     0.5708991 α      lambda       -0.2644636E-03
   maximum displ.:     0.4188370 α      in ANC's #1, #2, #3, ...

........................................................................
.............................. CYCLE   15 ..............................
........................................................................

 iter      E             dE          RMSdq      gap      omega  full diag
   1    -32.0701118 -0.320701E+02  0.168E-01    3.60       0.0  T
   2    -32.0701138 -0.204625E-05  0.986E-02    3.60       1.0  T
   3    -32.0701127  0.118274E-05  0.109E-02    3.60       1.8  T
   4    -32.0701144 -0.169892E-05  0.290E-03    3.60       6.8  T
   5    -32.0701145 -0.107756E-06  0.134E-03    3.60      14.6  T
   6    -32.0701145 -0.238745E-07  0.578E-04    3.60      33.9  T
   7    -32.0701145 -0.104662E-08  0.161E-04    3.60     121.7  T
   8    -32.0701145 -0.157897E-09  0.563E-05    3.60     348.6  T
   9    -32.0701145 -0.133582E-10  0.273E-05    3.60     719.4  T
  10    -32.0701145 -0.284217E-11  0.959E-06    3.60    2044.9  T
  11    -32.0701145 -0.108713E-11  0.390E-06    3.60    5025.5  T
     SCC iter.                  ...        0 min,  0.073 sec
     gradient                   ...        0 min,  0.002 sec
 * total energy  :   -31.5527185 Eh     change       -0.2188361E-03 Eh
   gradient norm :     0.0051030 Eh/α   predicted    -0.1753354E-03 ( -19.88%)
   displ. norm   :     0.5536293 α      lambda       -0.2688538E-03
   maximum displ.:     0.4012661 α      in ANC's #1, #2, #3, ...

........................................................................
.............................. CYCLE   16 ..............................
........................................................................

 iter      E             dE          RMSdq      gap      omega  full diag
   1    -32.0695458 -0.320695E+02  0.164E-01    3.61       0.0  T
   2    -32.0695475 -0.171015E-05  0.967E-02    3.61       1.0  T
   3    -32.0695463  0.120468E-05  0.993E-03    3.61       2.0  T
   4    -32.0695479 -0.167055E-05  0.271E-03    3.61       7.2  T
   5    -32.0695480 -0.106696E-06  0.112E-03    3.61      17.5  T
   6    -32.0695480 -0.136737E-07  0.522E-04    3.61      37.6  T
   7    -32.0695480 -0.994689E-09  0.145E-04    3.61     135.4  T
   8    -32.0695480 -0.171056E-09  0.476E-05    3.61     411.7  T
   9    -32.0695480 -0.459721E-11  0.225E-05    3.61     870.2  T
  10    -32.0695480 -0.198952E-11  0.635E-06    3.61    3088.4  T
  11    -32.0695480 -0.298428E-12  0.367E-06    3.61    5337.6  T
     SCC iter.                  ...        0 min,  0.074 sec
     gradient                   ...        0 min,  0.002 sec
 * total energy  :   -31.5529190 Eh     change       -0.2005206E-03 Eh
   gradient norm :     0.0065273 Eh/α   predicted    -0.1756305E-03 ( -12.41%)
   displ. norm   :     0.3603634 α      lambda       -0.2898455E-03
   maximum displ.:     0.2391389 α      in ANC's #1, #2, #3, ...

........................................................................
.............................. CYCLE   17 ..............................
........................................................................

 iter      E             dE          RMSdq      gap      omega  full diag
   1    -32.0743761 -0.320744E+02  0.117E-01    3.63       0.0  T
   2    -32.0743770 -0.897020E-06  0.684E-02    3.63       1.0  T
   3    -32.0743765  0.542692E-06  0.624E-03    3.63       3.1  T
   4    -32.0743772 -0.761487E-06  0.228E-03    3.63       8.6  T
   5    -32.0743773 -0.763114E-07  0.797E-04    3.63      24.6  T
   6    -32.0743773 -0.305902E-08  0.463E-04    3.63      42.3  T
   7    -32.0743773 -0.128372E-08  0.116E-04    3.63     168.8  T
   8    -32.0743773 -0.131934E-09  0.437E-05    3.63     448.6  T
   9    -32.0743773 -0.155680E-10  0.168E-05    3.63    1164.0  T
  10    -32.0743773 -0.264322E-11  0.719E-06    3.63    2727.6  T
  11    -32.0743773 -0.305533E-12  0.308E-06    3.63    6359.0  T
     SCC iter.                  ...        0 min,  0.073 sec
     gradient                   ...        0 min,  0.002 sec
 * total energy  :   -31.5531107 Eh     change       -0.1916962E-03 Eh
   gradient norm :     0.0054309 Eh/α   predicted    -0.1637433E-03 ( -14.58%)
   displ. norm   :     0.5375116 α      lambda       -0.2247965E-03
   maximum displ.:     0.3709222 α      in ANC's #1, #2, #3, ...

........................................................................
.............................. CYCLE   18 ..............................
........................................................................

 iter      E             dE          RMSdq      gap      omega  full diag
   1    -32.0708285 -0.320708E+02  0.167E-01    3.64       0.0  T
   2    -32.0708315 -0.306044E-05  0.990E-02    3.64       1.0  T
   3    -32.0708298  0.179934E-05  0.164E-02    3.64       1.2  T
   4    -32.0708323 -0.250888E-05  0.298E-03    3.64       6.6  T
   5    -32.0708323 -0.436460E-07  0.191E-03    3.64      10.3  T
   6    -32.0708323 -0.344300E-07  0.757E-04    3.64      25.9  T
   7    -32.0708323 -0.230494E-08  0.179E-04    3.64     109.7  T
   8    -32.0708323 -0.436486E-10  0.691E-05    3.64     283.7  T
   9    -32.0708323 -0.208829E-10  0.323E-05    3.64     607.0  T
  10    -32.0708323 -0.459011E-11  0.108E-05    3.64    1809.1  T
  11    -32.0708323 -0.125766E-11  0.422E-06    3.64    4647.3  T
  12    -32.0708323  0.000000E+00  0.168E-06    3.64   11692.1  T
     SCC iter.                  ...        0 min,  0.074 sec
     gradient                   ...        0 min,  0.002 sec
 * total energy  :   -31.5532304 Eh     change       -0.1196683E-03 Eh
   gradient norm :     0.0049738 Eh/α   predicted    -0.1448786E-03 (  21.07%)
   displ. norm   :     0.1153714 α      lambda       -0.1356767E-03
   maximum displ.:     0.0670824 α      in ANC's #4, #3, #1, ...

........................................................................
.............................. CYCLE   19 ..............................
........................................................................

 iter      E             dE          RMSdq      gap      omega  full diag
   1    -32.0746529 -0.320747E+02  0.478E-02    3.65       0.0  T
   2    -32.0746536 -0.701923E-06  0.277E-02    3.65       1.0  T
   3    -32.0746535  0.547432E-07  0.442E-03    3.65       4.4  T
   4    -32.0746536 -0.112072E-06  0.197E-03    3.65       9.9  T
   5    -32.0746537 -0.395270E-07  0.529E-04    3.65      37.0  T
   6    -32.0746537 -0.606306E-10  0.271E-04    3.65      72.4  T
   7    -32.0746537 -0.729962E-09  0.101E-04    3.65     193.8  T
   8    -32.0746537 -0.955112E-10  0.300E-05    3.65     653.0  T
   9    -32.0746537 -0.787281E-11  0.160E-05    3.65    1224.4  T
  10    -32.0746537 -0.689226E-12  0.517E-06    3.65    3794.4  T
  11    -32.0746537 -0.568434E-13  0.265E-06    3.65    7394.2  T
     SCC iter.                  ...        0 min,  0.074 sec
     gradient                   ...        0 min,  0.002 sec
 * total energy  :   -31.5533151 Eh     change       -0.8477188E-04 Eh
   gradient norm :     0.0028733 Eh/α   predicted    -0.6874351E-04 ( -18.91%)
   displ. norm   :     0.2689962 α      lambda       -0.8228220E-04
   maximum displ.:     0.1628541 α      in ANC's #1, #3, #2, ...

........................................................................
.............................. CYCLE   20 ..............................
........................................................................

 iter      E             dE          RMSdq      gap      omega  full diag
   1    -32.0748237 -0.320748E+02  0.942E-02    3.65       0.0  T
   2    -32.0748243 -0.523922E-06  0.559E-02    3.65       1.0  T
   3    -32.0748238  0.480330E-06  0.702E-03    3.65       2.8  T
   4    -32.0748244 -0.660964E-06  0.120E-03    3.65      16.3  T
   5    -32.0748244 -0.709382E-08  0.648E-04    3.65      30.3  T
   6    -32.0748245 -0.595752E-08  0.253E-04    3.65      77.6  T
   7    -32.0748245 -0.923848E-10  0.103E-04    3.65     189.5  T
   8    -32.0748245 -0.114014E-09  0.304E-05    3.65     644.4  T
   9    -32.0748245 -0.726175E-11  0.117E-05    3.65    1680.4  T
  10    -32.0748245 -0.125056E-11  0.486E-06    3.65    4035.6  T
  11    -32.0748245 -0.213163E-12  0.211E-06    3.65    9277.9  T
     SCC iter.                  ...        0 min,  0.075 sec
     gradient                   ...        0 min,  0.002 sec
 * total energy  :   -31.5533697 Eh     change       -0.5457884E-04 Eh
   gradient norm :     0.0030973 Eh/α   predicted    -0.4411916E-04 ( -19.16%)
   displ. norm   :     0.1726541 α      lambda       -0.5615343E-04
   maximum displ.:     0.1086535 α      in ANC's #3, #1, #4, ...
 * RMSD in coord.:     0.9024948 α      energy gain  -0.6290712E-02 Eh

generating ANC from model Hessian ...
Using Lindh-Hessian (1995)
 Shifting diagonal of input Hessian by   9.355126351289326E-003
 Lowest  eigenvalues of input Hessian
    0.000000    0.000000    0.000000    0.000000    0.000000    0.000000
    0.010000    0.010773    0.010895    0.011085    0.011869    0.012698
    0.016393    0.017296    0.018013    0.019060    0.020234    0.024449
 Highest eigenvalues
    1.365296    1.553492    1.576180    1.880244    1.987984    2.007688
 

........................................................................
.............................. CYCLE   21 ..............................
........................................................................

 iter      E             dE          RMSdq      gap      omega  full diag
   1    -32.0747115 -0.320747E+02  0.613E-02    3.66       0.0  T
   2    -32.0747117 -0.192809E-06  0.362E-02    3.66       1.0  T
   3    -32.0747116  0.763128E-07  0.263E-03    3.66       7.5  T
   4    -32.0747117 -0.127110E-06  0.120E-03    3.66      16.3  T
   5    -32.0747117 -0.132527E-07  0.502E-04    3.66      39.1  T
   6    -32.0747117 -0.418879E-09  0.179E-04    3.66     109.7  T
   7    -32.0747117 -0.549910E-09  0.621E-05    3.66     315.6  T
   8    -32.0747117 -0.288125E-10  0.215E-05    3.66     912.4  T
   9    -32.0747117 -0.400746E-11  0.912E-06    3.66    2149.6  T
  10    -32.0747117 -0.504485E-12  0.281E-06    3.66    6979.6  T
     SCC iter.                  ...        0 min,  0.073 sec
     gradient                   ...        0 min,  0.002 sec
 * total energy  :   -31.5534081 Eh     change       -0.3834845E-04 Eh
   gradient norm :     0.0026316 Eh/α   predicted     0.0000000E+00 (-100.00%)
   displ. norm   :     0.0369685 α      lambda       -0.2777087E-04
   maximum displ.:     0.0282008 α      in ANC's #5, #6, #2, ...

........................................................................
.............................. CYCLE   22 ..............................
........................................................................

 iter      E             dE          RMSdq      gap      omega  full diag
   1    -32.0742083 -0.320742E+02  0.122E-02    3.66       0.0  T
   2    -32.0742084 -0.121061E-06  0.661E-03    3.66       3.0  T
   3    -32.0742084  0.700240E-10  0.202E-03    3.66       9.7  T
   4    -32.0742084 -0.442117E-08  0.972E-04    3.66      20.2  T
   5    -32.0742084 -0.648771E-08  0.211E-04    3.66      92.8  T
   6    -32.0742084 -0.261764E-09  0.115E-04    3.66     170.9  T
   7    -32.0742084 -0.101089E-09  0.422E-05    3.66     464.6  T
   8    -32.0742084 -0.100258E-10  0.889E-06    3.66    2205.5  T
   9    -32.0742084 -0.959233E-12  0.444E-06    3.66    4421.0  T
     SCC iter.                  ...        0 min,  0.073 sec
     gradient                   ...        0 min,  0.002 sec
 * total energy  :   -31.5534312 Eh     change       -0.2317218E-04 Eh
   gradient norm :     0.0012080 Eh/α   predicted    -0.1393321E-04 ( -39.87%)
   displ. norm   :     0.1507376 α      lambda       -0.4895824E-04
   maximum displ.:     0.1058651 α      in ANC's #5, #6, #2, ...

........................................................................
.............................. CYCLE   23 ..............................
........................................................................

 iter      E             dE          RMSdq      gap      omega  full diag
   1    -32.0729226 -0.320729E+02  0.361E-02    3.66       0.0  T
   2    -32.0729236 -0.976073E-06  0.202E-02    3.66       1.0  T
   3    -32.0729236 -0.789049E-08  0.635E-03    3.66       3.1  T
   4    -32.0729237 -0.794089E-07  0.229E-03    3.66       8.6  T
   5    -32.0729237 -0.166606E-07  0.445E-04    3.66      44.1  T
   6    -32.0729237 -0.497799E-09  0.268E-04    3.66      73.2  T
   7    -32.0729237 -0.459224E-09  0.990E-05    3.66     198.0  T
   8    -32.0729237 -0.574332E-10  0.292E-05    3.66     672.8  T
   9    -32.0729237 -0.934364E-11  0.128E-05    3.66    1530.0  T
  10    -32.0729237 -0.124345E-11  0.384E-06    3.66    5103.2  T
  11    -32.0729237  0.426326E-13  0.199E-06    3.66    9865.7  T
     SCC iter.                  ...        0 min,  0.074 sec
     gradient                   ...        0 min,  0.002 sec
 * total energy  :   -31.5534705 Eh     change       -0.3928995E-04 Eh
   gradient norm :     0.0031694 Eh/α   predicted    -0.2472702E-04 ( -37.07%)
   displ. norm   :     0.0433709 α      lambda       -0.1787659E-04
   maximum displ.:     0.0281738 α      in ANC's #5, #2, #11, ...

........................................................................
.............................. CYCLE   24 ..............................
........................................................................

 iter      E             dE          RMSdq      gap      omega  full diag
   1    -32.0732841 -0.320733E+02  0.980E-03    3.65       0.0  T
   2    -32.0732841 -0.340310E-07  0.576E-03    3.65       3.4  T
   3    -32.0732841  0.849540E-08  0.123E-03    3.65      16.0  T
   4    -32.0732841 -0.118835E-07  0.525E-04    3.65      37.4  T
   5    -32.0732841 -0.246246E-08  0.161E-04    3.65     121.8  T
   6    -32.0732841 -0.517566E-09  0.502E-05    3.65     390.9  T
   7    -32.0732841 -0.836309E-11  0.240E-05    3.65     817.3  T
   8    -32.0732841 -0.333245E-11  0.859E-06    3.65    2283.5  T
   9    -32.0732841 -0.724754E-12  0.285E-06    3.65    6872.8  T
     SCC iter.                  ...        0 min,  0.073 sec
     gradient                   ...        0 min,  0.002 sec
 * total energy  :   -31.5534864 Eh     change       -0.1587625E-04 Eh
   gradient norm :     0.0025838 Eh/α   predicted    -0.8955629E-05 ( -43.59%)
   displ. norm   :     0.1603354 α      lambda       -0.5699379E-04
   maximum displ.:     0.0984279 α      in ANC's #5, #2, #11, ...

........................................................................
.............................. CYCLE   25 ..............................
........................................................................

 iter      E             dE          RMSdq      gap      omega  full diag
   1    -32.0739611 -0.320740E+02  0.339E-02    3.66       0.0  T
   2    -32.0739614 -0.233150E-06  0.206E-02    3.66       1.0  T
   3    -32.0739612  0.180183E-06  0.416E-03    3.66       4.7  T
   4    -32.0739614 -0.213606E-06  0.128E-03    3.66      15.3  T
   5    -32.0739614 -0.193374E-07  0.502E-04    3.66      39.1  T
   6    -32.0739614 -0.449060E-08  0.169E-04    3.66     116.3  T
   7    -32.0739614  0.522249E-11  0.577E-05    3.66     340.1  T
   8    -32.0739614 -0.310791E-10  0.146E-05    3.66    1342.1  T
   9    -32.0739614 -0.121503E-11  0.742E-06    3.66    2643.3  T
  10    -32.0739614 -0.305533E-12  0.338E-06    3.66    5794.8  T
     SCC iter.                  ...        0 min,  0.073 sec
     gradient                   ...        0 min,  0.002 sec
 * total energy  :   -31.5535237 Eh     change       -0.3729854E-04 Eh
   gradient norm :     0.0012353 Eh/α   predicted    -0.2925958E-04 ( -21.55%)
   displ. norm   :     0.1449817 α      lambda       -0.1523984E-04
   maximum displ.:     0.0872927 α      in ANC's #5, #2, #11, ...

........................................................................
.............................. CYCLE   26 ..............................
........................................................................

 iter      E             dE          RMSdq      gap      omega  full diag
   1    -32.0739238 -0.320739E+02  0.306E-02    3.66       0.0  T
   2    -32.0739240 -0.213700E-06  0.181E-02    3.66       1.1  T
   3    -32.0739240  0.123725E-07  0.315E-03    3.66       6.2  T
   4    -32.0739240 -0.445461E-07  0.941E-04    3.66      20.8  T
   5    -32.0739240 -0.181333E-08  0.266E-04    3.66      73.9  T
   6    -32.0739240 -0.660059E-09  0.142E-04    3.66     138.6  T
   7    -32.0739240 -0.232887E-09  0.612E-05    3.66     320.5  T
   8    -32.0739240 -0.116813E-10  0.154E-05    3.66    1274.1  T
   9    -32.0739240 -0.240163E-11  0.574E-06    3.66    3415.2  T
  10    -32.0739240 -0.255795E-12  0.258E-06    3.66    7599.6  T
     SCC iter.                  ...        0 min,  0.073 sec
     gradient                   ...        0 min,  0.002 sec
 * total energy  :   -31.5535346 Eh     change       -0.1093474E-04 Eh
   gradient norm :     0.0016538 Eh/α   predicted    -0.7691474E-05 ( -29.66%)
   displ. norm   :     0.0265486 α      lambda       -0.7351479E-05
   maximum displ.:     0.0175589 α      in ANC's #2, #4, #3, ...

........................................................................
.............................. CYCLE   27 ..............................
........................................................................

 iter      E             dE          RMSdq      gap      omega  full diag
   1    -32.0745070 -0.320745E+02  0.115E-02    3.66       0.0  T
   2    -32.0745072 -0.165215E-06  0.650E-03    3.66       3.0  T
   3    -32.0745072  0.340576E-08  0.213E-03    3.66       9.2  T
   4    -32.0745072 -0.147434E-07  0.694E-04    3.66      28.3  T
   5    -32.0745072 -0.160365E-08  0.464E-04    3.66      42.2  T
   6    -32.0745072 -0.210667E-08  0.129E-04    3.66     151.5  T
   7    -32.0745072 -0.416520E-10  0.416E-05    3.66     471.4  T
   8    -32.0745072 -0.974865E-11  0.130E-05    3.66    1512.5  T
   9    -32.0745072 -0.540012E-12  0.693E-06    3.66    2828.3  T
  10    -32.0745072 -0.397904E-12  0.282E-06    3.66    6950.3  T
     SCC iter.                  ...        0 min,  0.073 sec
     gradient                   ...        0 min,  0.002 sec
 * total energy  :   -31.5535387 Eh     change       -0.4084208E-05 Eh
   gradient norm :     0.0011024 Eh/α   predicted    -0.3678214E-05 (  -9.94%)
   displ. norm   :     0.0366222 α      lambda       -0.3125877E-05
   maximum displ.:     0.0204611 α      in ANC's #2, #5, #7, ...

........................................................................
.............................. CYCLE   28 ..............................
........................................................................

 iter      E             dE          RMSdq      gap      omega  full diag
   1    -32.0741984 -0.320742E+02  0.956E-03    3.66       0.0  T
   2    -32.0741985 -0.499800E-07  0.547E-03    3.66       3.6  T
   3    -32.0741985  0.150107E-08  0.163E-03    3.66      12.1  T
   4    -32.0741985 -0.681941E-08  0.369E-04    3.66      53.2  T
   5    -32.0741985 -0.211067E-09  0.144E-04    3.66     136.4  T
   6    -32.0741985 -0.958096E-10  0.666E-05    3.66     294.3  T
   7    -32.0741985 -0.394706E-10  0.271E-05    3.66     723.4  T
   8    -32.0741985 -0.716938E-11  0.650E-06    3.66    3018.2  T
   9    -32.0741985 -0.312639E-12  0.416E-06    3.66    4712.7  T
     SCC iter.                  ...        0 min,  0.073 sec
     gradient                   ...        0 min,  0.002 sec
 * total energy  :   -31.5535416 Eh     change       -0.2912789E-05 Eh
   gradient norm :     0.0002530 Eh/α   predicted    -0.1564671E-05 ( -46.28%)
   displ. norm   :     0.0369485 α      lambda        0.1158430E-05
   maximum displ.:     0.0206682 α      in ANC's #2, #5, #7, ...

........................................................................
.............................. CYCLE   29 ..............................
........................................................................

 iter      E             dE          RMSdq      gap      omega  full diag
   1    -32.0738535 -0.320739E+02  0.969E-03    3.66       0.0  T
   2    -32.0738535 -0.556389E-07  0.554E-03    3.66       3.5  T
   3    -32.0738535  0.120298E-08  0.168E-03    3.66      11.7  T
   4    -32.0738536 -0.691306E-08  0.379E-04    3.66      51.8  T
   5    -32.0738536 -0.218066E-09  0.154E-04    3.66     127.1  T
   6    -32.0738536 -0.100357E-09  0.692E-05    3.66     283.3  T
   7    -32.0738536 -0.401457E-10  0.282E-05    3.66     696.6  T
   8    -32.0738536 -0.797229E-11  0.661E-06    3.66    2967.7  T
   9    -32.0738536 -0.241585E-12  0.440E-06    3.66    4457.7  T
     SCC iter.                  ...        0 min,  0.073 sec
     gradient                   ...        0 min,  0.002 sec
 * total energy  :   -31.5535407 Eh     change        0.9843459E-06 Eh
   gradient norm :     0.0010288 Eh/α   predicted     0.5795026E-06 ( -41.13%)
   displ. norm   :     0.0217536 α      lambda       -0.2297461E-05
   maximum displ.:     0.0137379 α      in ANC's #5, #11, #2, ...

........................................................................
.............................. CYCLE   30 ..............................
........................................................................

 iter      E             dE          RMSdq      gap      omega  full diag
   1    -32.0742067 -0.320742E+02  0.678E-03    3.66       0.0  T
   2    -32.0742067 -0.449475E-07  0.369E-03    3.66       5.3  T
   3    -32.0742067 -0.267785E-08  0.111E-03    3.66      17.6  T
   4    -32.0742067 -0.170238E-08  0.398E-04    3.66      49.3  T
   5    -32.0742067 -0.278149E-09  0.135E-04    3.66     145.6  T
   6    -32.0742067 -0.335383E-09  0.635E-05    3.66     308.6  T
   7    -32.0742067 -0.403872E-10  0.273E-05    3.66     717.7  T
   8    -32.0742067 -0.262901E-12  0.716E-06    3.66    2739.0  T
   9    -32.0742067 -0.433431E-12  0.272E-06    3.66    7209.1  T
     SCC iter.                  ...        0 min,  0.073 sec
     gradient                   ...        0 min,  0.002 sec
 * total energy  :   -31.5535424 Eh     change       -0.1789856E-05 Eh
   gradient norm :     0.0002274 Eh/α   predicted    -0.1154605E-05 ( -35.49%)
   displ. norm   :     0.0070448 α      lambda       -0.3565710E-06
   maximum displ.:     0.0038706 α      in ANC's #2, #10, #3, ...

........................................................................
.............................. CYCLE   31 ..............................
........................................................................

 iter      E             dE          RMSdq      gap      omega  full diag
   1    -32.0742546 -0.320743E+02  0.325E-03    3.66       0.0  T
   2    -32.0742546 -0.514493E-08  0.185E-03    3.66      10.6  T
   3    -32.0742546  0.148873E-09  0.382E-04    3.66      51.3  T
   4    -32.0742546 -0.472838E-09  0.203E-04    3.66      96.4  T
   5    -32.0742546 -0.300098E-09  0.525E-05    3.66     373.2  T
   6    -32.0742546 -0.394778E-10  0.232E-05    3.66     846.7  T
   7    -32.0742546 -0.275691E-11  0.828E-06    3.66    2369.7  T
   8    -32.0742546 -0.198952E-12  0.281E-06    3.66    6981.3  T
     SCC iter.                  ...        0 min,  0.072 sec
     gradient                   ...        0 min,  0.002 sec
 * total energy  :   -31.5535428 Eh     change       -0.3085947E-06 Eh
   gradient norm :     0.0001381 Eh/α   predicted    -0.1810083E-06 ( -41.34%)
   displ. norm   :     0.0094003 α      lambda       -0.1987757E-06
   maximum displ.:     0.0053893 α      in ANC's #2, #3, #10, ...

........................................................................
.............................. CYCLE   32 ..............................
........................................................................

 iter      E             dE          RMSdq      gap      omega  full diag
   1    -32.0742522 -0.320743E+02  0.342E-03    3.66       0.0  T
   2    -32.0742522 -0.112033E-08  0.199E-03    3.66       9.9  T
   3    -32.0742522  0.630763E-09  0.237E-04    3.66      82.7  T
   4    -32.0742522 -0.662325E-09  0.101E-04    3.66     194.2  T
   5    -32.0742522 -0.232582E-09  0.255E-05    3.66     769.4  T
   6    -32.0742522 -0.331823E-11  0.120E-05    3.66    1636.8  T
   7    -32.0742522 -0.447642E-12  0.402E-06    3.66    4879.2  T
   8    -32.0742522 -0.639488E-13  0.158E-06    3.66   12428.3  T
     SCC iter.                  ...        0 min,  0.072 sec
     gradient                   ...        0 min,  0.002 sec
 * total energy  :   -31.5535430 Eh     change       -0.2227171E-06 Eh
   gradient norm :     0.0001035 Eh/α   predicted    -0.9999594E-07 ( -55.10%)
   displ. norm   :     0.0090680 α      lambda       -0.1282492E-06
   maximum displ.:     0.0051530 α      in ANC's #3, #2, #10, ...

........................................................................
.............................. CYCLE   33 ..............................
........................................................................

 iter      E             dE          RMSdq      gap      omega  full diag
   1    -32.0742268 -0.320742E+02  0.343E-03    3.66       0.0  T
   2    -32.0742268 -0.144017E-08  0.197E-03    3.66      10.0  T
   3    -32.0742268  0.189992E-09  0.239E-04    3.66      81.9  T
   4    -32.0742268 -0.282739E-09  0.896E-05    3.66     218.8  T
   5    -32.0742268 -0.127862E-09  0.344E-05    3.66     570.1  T
   6    -32.0742268 -0.172662E-10  0.143E-05    3.66    1367.4  T
   7    -32.0742268 -0.675016E-12  0.466E-06    3.66    4204.6  T
   8    -32.0742268 -0.127898E-12  0.133E-06    3.66   14738.6  T
     SCC iter.                  ...        0 min,  0.075 sec
     gradient                   ...        0 min,  0.002 sec
 * total energy  :   -31.5535431 Eh     change       -0.1340236E-06 Eh
   gradient norm :     0.0000487 Eh/α   predicted    -0.6841184E-07 ( -48.96%)
   displ. norm   :     0.0090680 α      lambda        0.0000000E+00
   maximum displ.:     0.0051530 α      in ANC's #3, #2, #10, ...

........................................................................
.............................. CYCLE   34 ..............................
........................................................................

 iter      E             dE          RMSdq      gap      omega  full diag
   1    -32.0741997 -0.320742E+02  0.343E-03    3.66       0.0  T
   2    -32.0741997 -0.144765E-08  0.197E-03    3.66      10.0  T
   3    -32.0741997  0.189885E-09  0.240E-04    3.66      81.8  T
   4    -32.0741997 -0.283073E-09  0.896E-05    3.66     218.8  T
   5    -32.0741997 -0.127699E-09  0.344E-05    3.66     569.5  T
   6    -32.0741997 -0.172804E-10  0.144E-05    3.66    1361.6  T
   7    -32.0741997 -0.667910E-12  0.470E-06    3.66    4177.1  T
   8    -32.0741997 -0.994760E-13  0.134E-06    3.66   14662.8  T
     SCC iter.                  ...        0 min,  0.073 sec
     gradient                   ...        0 min,  0.002 sec
 * total energy  :   -31.5535431 Eh     change       -0.2640302E-08 Eh
   gradient norm :     0.0001128 Eh/α   predicted     0.2055770E-08 (-177.86%)
   displ. norm   :     0.0026854 α      lambda       -0.6748810E-07
   maximum displ.:     0.0015833 α      in ANC's #4, #2, #10, ...

........................................................................
.............................. CYCLE   35 ..............................
........................................................................

 iter      E             dE          RMSdq      gap      omega  full diag
   1    -32.0742094 -0.320742E+02  0.146E-03    3.66       0.0  T
   2    -32.0742094 -0.828827E-09  0.802E-04    3.66      24.5  T
   3    -32.0742094  0.540155E-10  0.205E-04    3.66      95.4  T
   4    -32.0742094 -0.168427E-09  0.644E-05    3.66     304.7  T
   5    -32.0742094 -0.247979E-11  0.254E-05    3.66     771.6  T
   6    -32.0742094 -0.111697E-10  0.103E-05    3.66    1907.0  T
   7    -32.0742094 -0.149214E-12  0.424E-06    3.66    4623.2  T
   8    -32.0742094 -0.852651E-13  0.114E-06    3.66   17209.6  T
     SCC iter.                  ...        0 min,  0.072 sec
     gradient                   ...        0 min,  0.002 sec
 * total energy  :   -31.5535432 Eh     change       -0.6545344E-07 Eh
   gradient norm :     0.0000570 Eh/α   predicted    -0.3547937E-07 ( -45.79%)
   displ. norm   :     0.0034017 α      lambda       -0.4045746E-07
   maximum displ.:     0.0021204 α      in ANC's #4, #1, #7, ...

........................................................................
.............................. CYCLE   36 ..............................
........................................................................

 iter      E             dE          RMSdq      gap      omega  full diag
   1    -32.0742240 -0.320742E+02  0.115E-03    3.66       0.0  T
   2    -32.0742240 -0.554095E-09  0.666E-04    3.66      29.4  T
   3    -32.0742240  0.182595E-09  0.169E-04    3.66     116.3  T
   4    -32.0742240 -0.212793E-09  0.570E-05    3.66     344.0  T
   5    -32.0742240 -0.502780E-10  0.182E-05    3.66    1078.5  T
   6    -32.0742240 -0.621725E-11  0.775E-06    3.66    2532.1  T
   7    -32.0742240 -0.284217E-12  0.267E-06    3.66    7353.1  T
     SCC iter.                  ...        0 min,  0.073 sec
     gradient                   ...        0 min,  0.002 sec
 * total energy  :   -31.5535432 Eh     change       -0.4330063E-07 Eh
   gradient norm :     0.0000325 Eh/α   predicted    -0.2125106E-07 ( -50.92%)
   displ. norm   :     0.0034017 α      lambda        0.0000000E+00
   maximum displ.:     0.0021204 α      in ANC's #4, #1, #7, ...

   *** GEOMETRY OPTIMIZATION CONVERGED AFTER 36 ITERATIONS ***

------------------------------------------------------------------------
 total energy gain   :        -0.0064642 Eh       -4.0564 kcal/mol
 total RMSD          :         0.8879510 a0        0.4699 Å
 total power (kW/mol):        -0.4714384 (step)   -6.1386 (real)
------------------------------------------------------------------------

 ANCopt (total)                0 d,  0 h,  0 min,  2.765 sec
 optimizer setup                ...        0 min,  0.000 sec (  0.003%)
 model hessian                  ...        0 min,  0.011 sec (  0.396%)
 ANC generation                 ...        0 min,  0.001 sec (  0.024%)
 coordinate transformation      ...        0 min,  0.000 sec (  0.013%)
 single point calculation       ...        0 min,  2.747 sec ( 99.353%)
 optimization log               ...        0 min,  0.002 sec (  0.084%)
 hessian update                 ...        0 min,  0.001 sec (  0.022%)
 rational function              ...        0 min,  0.002 sec (  0.074%)

================
 final structure:
================
26
 xtb: 6.7.0 (08769fc)
P            1.79352304110439       -0.22989504337488       -2.98073910551638
C            0.99786450770522        1.46650229416996       -2.85058909773557
H            1.79848474379655        2.20899456405853       -2.85119857189489
H            0.37027814247797        1.64247758681682       -3.72791350733660
C            0.18522841619758        1.61317767957139       -1.56941284916227
H            0.82055778440930        1.45612921501718       -0.70011118191924
H           -0.62163935296241        0.88449567417418       -1.52848045538204
H           -0.24978930925253        2.60961522174288       -1.50476684291138
C            0.80304249712941       -0.89611440612649       -4.37602149932094
C            1.36426212050099       -1.55552209134908       -5.46428982323304
C           -0.58614029132660       -0.84160747224371       -4.27861815950986
C            0.55960630929074       -2.09875273555252       -6.45035986557561
C           -1.38947040614447       -1.38485952310429       -5.26251001487809
C           -0.81826176737204       -2.01076080411894       -6.35797961360447
H            2.43585153906423       -1.64871010225917       -5.55409162282801
H           -1.04250111936557       -0.36738831726997       -3.42143561862488
H            1.01373125926455       -2.59647900114434       -7.29543109806326
H           -2.46477956355811       -1.32393399850952       -5.17313281414990
H           -1.44361606521433       -2.43461101693205       -7.12992590799248
C            3.34740102129721        0.27247633836777       -3.88719265685948
H            3.80010156327834       -0.63673361573329       -4.28844997834495
H            3.09195757538863        0.93234849053933       -4.72188707435452
C            4.34808508206493        0.93374900841462       -2.94769507541178
H            4.59745322807191        0.26031201712471       -2.13006847892936
H            3.94897063011768        1.85084445543254       -2.51920037616572
H            5.26376841403702        1.18122558228685       -3.48237471029689
 
 Bond Distances (Angstroems)
 ---------------------------
P1-C2=1.8782         P1-C9=1.8362         P1-C20=1.8678        C2-P1=1.8782         C2-H3=1.0919         C2-H4=1.0929         
C2-C5=1.5242         H3-C2=1.0919         H4-C2=1.0929         C5-C2=1.5242         C5-H6=1.0881         C5-H7=1.0880         
C5-H8=1.0892         H6-C5=1.0881         H7-C5=1.0880         H8-C5=1.0892         C9-P1=1.8362         C9-C10=1.3907        
C9-C11=1.3937        C10-C9=1.3907        C10-C12=1.3838       C10-H15=1.0794       C11-C9=1.3937        C11-C13=1.3815       
C11-H16=1.0807       C12-C10=1.3838       C12-C14=1.3838       C12-H17=1.0808       C13-C11=1.3815       C13-C14=1.3849       
C13-H18=1.0807       C14-C12=1.3838       C14-C13=1.3849       C14-H19=1.0801       H15-C10=1.0794       H16-C11=1.0807       
H17-C12=1.0808       H18-C13=1.0807       H19-C14=1.0801       C20-P1=1.8678        C20-H21=1.0921       C20-H22=1.0943       
C20-C23=1.5236       H21-C20=1.0921       H22-C20=1.0943       C23-C20=1.5236       C23-H24=1.0882       C23-H25=1.0881       
C23-H26=1.0889       H24-C23=1.0882       H25-C23=1.0881       H26-C23=1.0889       
 C  H  Rav=1.0869 sigma=0.0050  Rmin=1.0794  Rmax=1.0943    15
 C  C  Rav=1.4208 sigma=0.0597  Rmin=1.3815  Rmax=1.5242     8
 P  C  Rav=1.8607 sigma=0.0179  Rmin=1.8362  Rmax=1.8782     3
 
 selected bond angles (degree)
 --------------------
C9-P1-C2= 98.73                C20-P1-C2= 98.23               C20-P1-C9=100.23               H3-C2-P1=107.67                
H4-C2-P1=109.45                H4-C2-H3=108.13                C5-C2-P1=111.78                C5-C2-H3=109.02                
C5-C2-H4=110.68                H6-C5-C2=110.26                H7-C5-C2=111.26                H7-C5-H6=107.84                
H8-C5-C2=110.54                H8-C5-H6=108.53                H8-C5-H7=108.32                C10-C9-P1=123.30               
C11-C9-P1=118.06               C11-C9-C10=118.39              C12-C10-C9=120.60              H15-C10-C9=120.44              
H15-C10-C12=118.95             
 
 selected dihedral angles (degree)
 ---------------------------------
H3-C2-P1-C9=230.76            H3-C2-P1-C20=332.52           H4-C2-P1-C9=348.07            H4-C2-P1-C20= 89.83           
C5-C2-P1-C9=111.05            C5-C2-P1-C20=212.81           H6-C5-C2-P1= 58.83            H6-C5-C2-H3=299.92            
H6-C5-C2-H4=181.12            H7-C5-C2-P1=299.23            H7-C5-C2-H3=180.32            H7-C5-C2-H4= 61.52            
H8-C5-C2-P1=178.84            H8-C5-C2-H3= 59.93            H8-C5-C2-H4=301.13            C10-C9-P1-C2=133.63           
C10-C9-P1-C20= 33.56          C11-C9-P1-C2=307.74           C11-C9-P1-C20=207.67          C12-C10-C9-P1=176.50          
C12-C10-C9-C11=  2.41         H15-C10-C9-P1=356.31          H15-C10-C9-C11=182.22         
           -------------------------------------------------
          |                Final Singlepoint                |
           -------------------------------------------------

          ...................................................
          :                      SETUP                      :
          :.................................................:
          :  # basis functions                  65          :
          :  # atomic orbitals                  64          :
          :  # shells                           38          :
          :  # electrons                        60          :
          :  max. iterations                  5000          :
          :  Hamiltonian                  GFN2-xTB          :
          :  restarted?                      false          :
          :  GBSA solvation                  false          :
          :  PC potential                    false          :
          :  electronic temp.          300.0000000     K    :
          :  accuracy                    0.0100000          :
          :  -> integral cutoff          0.4500000E+02      :
          :  -> integral neglect         0.1000000E-09      :
          :  -> SCF convergence          0.1000000E-07 Eh   :
          :  -> wf. convergence          0.1000000E-05 e    :
          :  Broyden damping             0.4000000          :
          :  net charge                          0          :
          :  unpaired electrons                  0          :
          ...................................................

 iter      E             dE          RMSdq      gap      omega  full diag
   1    -32.0742240 -0.320742E+02  0.938E-07    3.66       0.0  T
   2    -32.0742240  0.142109E-13  0.545E-07    3.66   35976.8  T
   3    -32.0742240 -0.710543E-14  0.316E-07    3.66   62042.3  T

   *** convergence criteria satisfied after 3 iterations ***

         #    Occupation            Energy/Eh            Energy/eV
      -------------------------------------------------------------
         1        2.0000           -0.6583509             -17.9146
       ...           ...                  ...                  ...
        24        2.0000           -0.4382875             -11.9264
        25        2.0000           -0.4246328             -11.5548
        26        2.0000           -0.4142874             -11.2733
        27        2.0000           -0.4090157             -11.1299
        28        2.0000           -0.4023697             -10.9490
        29        2.0000           -0.3988876             -10.8543
        30        2.0000           -0.3639460              -9.9035 (HOMO)
        31                         -0.2294539              -6.2438 (LUMO)
        32                         -0.2213228              -6.0225
        33                         -0.1593873              -4.3371
        34                         -0.1523920              -4.1468
        35                         -0.0941482              -2.5619
       ...                                ...                  ...
        64                          0.7730168              21.0349
      -------------------------------------------------------------
                  HL-Gap            0.1344921 Eh            3.6597 eV
             Fermi-level           -0.2966999 Eh           -8.0736 eV

 SCC (total)                   0 d,  0 h,  0 min,  0.073 sec
 SCC setup                      ...        0 min,  0.000 sec (  0.074%)
 Dispersion                     ...        0 min,  0.000 sec (  0.085%)
 classical contributions        ...        0 min,  0.000 sec (  0.012%)
 integral evaluation            ...        0 min,  0.001 sec (  0.896%)
 iterations                     ...        0 min,  0.070 sec ( 96.518%)
 molecular gradient             ...        0 min,  0.002 sec (  2.296%)
 printout                       ...        0 min,  0.000 sec (  0.094%)

         :::::::::::::::::::::::::::::::::::::::::::::::::::::
         ::                     SUMMARY                     ::
         :::::::::::::::::::::::::::::::::::::::::::::::::::::
         :: total energy             -31.553543224015 Eh    ::
         :: gradient norm              0.000032534718 Eh/a0 ::
         :: HOMO-LUMO gap              3.659716234682 eV    ::
         ::.................................................::
         :: SCC energy               -32.074122798155 Eh    ::
         :: -> isotropic ES            0.004297183924 Eh    ::
         :: -> anisotropic ES          0.006324512400 Eh    ::
         :: -> anisotropic XC          0.021137565286 Eh    ::
         :: -> dispersion             -0.023367524323 Eh    ::
         :: repulsion energy           0.520579574140 Eh    ::
         :: add. restraining           0.000000000000 Eh    ::
         :: total charge               0.000000000000 e     ::
         :::::::::::::::::::::::::::::::::::::::::::::::::::::

           ------------------------------------------------- 
          |                Numerical Hessian                |
           ------------------------------------------------- 
step length          :   0.00500
SCC accuracy         :   0.30000
Hessian scale factor :   1.00000
frozen atoms in %    :   0.00000    0
RMS gradient         :   0.00003
estimated CPU  time      1.13 min
estimated wall time      0.14 min

writing file <hessian>.

 projected vibrational frequencies (cm⁻¹)
eigval :       -0.00    -0.00    -0.00     0.00     0.00     0.00
eigval :      -20.71    67.52    78.38   124.36   130.83   168.44
eigval :      195.06   225.94   230.67   272.34   290.41   331.14
eigval :      360.52   402.15   471.81   586.13   650.51   657.14
eigval :      683.86   696.36   735.94   757.08   775.16   867.41
eigval :      891.94   923.75   930.46   968.13   983.80   994.67
eigval :     1012.41  1018.89  1069.89  1074.83  1086.82  1115.28
eigval :     1124.08  1181.97  1202.63  1226.33  1227.70  1251.83
eigval :     1258.19  1285.02  1316.66  1409.63  1413.72  1421.10
eigval :     1442.25  1446.89  1458.12  1497.07  1499.14  1501.32
eigval :     1503.41  1577.03  1588.91  2929.00  2945.81  2961.00
eigval :     2964.37  3012.29  3014.61  3024.01  3024.78  3032.77
eigval :     3033.58  3067.31  3069.84  3078.11  3086.72  3091.90
           -------------------------------------------------
          |                Property Printout                |
           -------------------------------------------------

    * Orbital Energies and Occupations

         #    Occupation            Energy/Eh            Energy/eV
      -------------------------------------------------------------
         1        2.0000           -0.6583509             -17.9146
       ...           ...                  ...                  ...
        18        2.0000           -0.4768141             -12.9748
        19        2.0000           -0.4742151             -12.9041
        20        2.0000           -0.4635381             -12.6135
        21        2.0000           -0.4610194             -12.5450
        22        2.0000           -0.4528894             -12.3237
        23        2.0000           -0.4454204             -12.1205
        24        2.0000           -0.4382875             -11.9264
        25        2.0000           -0.4246328             -11.5548
        26        2.0000           -0.4142874             -11.2733
        27        2.0000           -0.4090157             -11.1299
        28        2.0000           -0.4023697             -10.9490
        29        2.0000           -0.3988876             -10.8543
        30        2.0000           -0.3639460              -9.9035 (HOMO)
        31                         -0.2294539              -6.2438 (LUMO)
        32                         -0.2213228              -6.0225
        33                         -0.1593873              -4.3371
        34                         -0.1523920              -4.1468
        35                         -0.0941482              -2.5619
        36                          0.0024068               0.0655
        37                          0.0604648               1.6453
        38                          0.0818782               2.2280
        39                          0.1143778               3.1124
        40                          0.1162180               3.1625
        41                          0.1305159               3.5515
       ...                                ...                  ...
        64                          0.7730168              21.0349
      -------------------------------------------------------------
                  HL-Gap            0.1344921 Eh            3.6597 eV
             Fermi-level           -0.2966999 Eh           -8.0736 eV

     #   Z          covCN         q      C6AA      α(0)
     1  15 P        3.032    -0.097   164.605    23.048
     2   6 C        3.747    -0.050    21.545     6.621
     3   1 H        0.925     0.043     2.408     2.427
     4   1 H        0.925     0.043     2.413     2.429
     5   6 C        3.807    -0.097    22.345     6.729
     6   1 H        0.925     0.041     2.441     2.443
     7   1 H        0.925     0.036     2.498     2.472
     8   1 H        0.925     0.031     2.571     2.508
     9   6 C        2.914     0.006    27.898     8.661
    10   6 C        2.968    -0.033    28.822     8.806
    11   6 C        3.005    -0.032    28.772     8.799
    12   6 C        2.919    -0.030    28.753     8.793
    13   6 C        2.918    -0.030    28.761     8.794
    14   6 C        2.920    -0.031    28.778     8.797
    15   1 H        0.926     0.031     2.575     2.509
    16   1 H        0.926     0.035     2.510     2.477
    17   1 H        0.926     0.028     2.611     2.527
    18   1 H        0.926     0.028     2.610     2.526
    19   1 H        0.926     0.028     2.611     2.527
    20   6 C        3.748    -0.049    21.513     6.616
    21   1 H        0.926     0.042     2.423     2.434
    22   1 H        0.925     0.042     2.416     2.431
    23   6 C        3.816    -0.098    22.348     6.728
    24   1 H        0.925     0.043     2.415     2.430
    25   1 H        0.925     0.036     2.504     2.474
    26   1 H        0.925     0.033     2.539     2.492

 Mol. C6AA /au·bohr⁶  :       7600.582362
 Mol. C8AA /au·bohr⁸  :     202553.732824
 Mol. α(0) /au        :        139.499098


Wiberg/Mayer (AO) data.
largest (>0.10) Wiberg bond orders for each atom

 ---------------------------------------------------------------------------
     #   Z sym  total        # sym  WBO       # sym  WBO       # sym  WBO
 ---------------------------------------------------------------------------
     1  15 P    3.357 --     9 C    1.023    20 C    1.022     2 C    1.011
     2   6 C    3.996 --     5 C    1.018     1 P    1.011     4 H    0.957
                             3 H    0.955
     3   1 H    0.998 --     2 C    0.955
     4   1 H    0.998 --     2 C    0.957
     5   6 C    3.997 --     2 C    1.018     6 H    0.986     8 H    0.985
                             7 H    0.983
     6   1 H    0.998 --     5 C    0.986
     7   1 H    0.999 --     5 C    0.983
     8   1 H    0.999 --     5 C    0.985
     9   6 C    3.980 --    10 C    1.400    11 C    1.390     1 P    1.023
                            14 C    0.105
    10   6 C    3.992 --    12 C    1.444     9 C    1.400    15 H    0.962
                            13 C    0.107
    11   6 C    3.992 --    13 C    1.454     9 C    1.390    16 H    0.961
                            12 C    0.109
    12   6 C    3.993 --    10 C    1.444    14 C    1.438    17 H    0.970
                            11 C    0.109
    13   6 C    3.992 --    11 C    1.454    14 C    1.430    18 H    0.970
                            10 C    0.107
    14   6 C    3.990 --    12 C    1.438    13 C    1.430    19 H    0.971
                             9 C    0.105
    15   1 H    0.999 --    10 C    0.962
    16   1 H    0.999 --    11 C    0.961
    17   1 H    0.999 --    12 C    0.970
    18   1 H    0.999 --    13 C    0.970
    19   1 H    0.998 --    14 C    0.971
    20   6 C    3.994 --     1 P    1.022    23 C    1.017    21 H    0.955
                            22 H    0.955
    21   1 H    0.998 --    20 C    0.955
    22   1 H    0.998 --    20 C    0.955
    23   6 C    3.996 --    20 C    1.017    24 H    0.985    26 H    0.984
                            25 H    0.981
    24   1 H    0.998 --    23 C    0.985
    25   1 H    0.999 --    23 C    0.981
    26   1 H    0.998 --    23 C    0.984
 ---------------------------------------------------------------------------

Topologies differ in total number of bonds
Writing topology from bond orders to xtbtopo.mol

molecular dipole:
                 x           y           z       tot (Debye)
 q only:        0.106       0.288      -0.060
   full:        0.065       0.480      -0.381       1.566
molecular quadrupole (traceless):
                xx          xy          yy          xz          yz          zz
 q only:        1.758       1.219      -1.725      -1.873      -1.558      -0.034
  q+dip:        1.608       1.934      -5.529      -2.993      -0.766       3.921
   full:        0.770       2.209      -4.075      -3.143      -1.625       3.304

           -------------------------------------------------
          |                Geometry Summary                 |
           -------------------------------------------------

      molecular mass/u    :      166.2002322
   center of mass at/Å    :        1.1003093      -0.3438095      -4.0348988
  moments of inertia/u·Å² :        0.3256365E+03   0.7928711E+03   0.1061405E+04
rotational constants/cm⁻¹ :        0.5176825E-01   0.2126150E-01   0.1588238E-01

 * 23 selected distances

     #   Z          #   Z                                           value/Å
     2   6 C        3   1 H                                       1.0919195
     2   6 C        4   1 H                                       1.0929457
     2   6 C        5   6 C                                       1.5242389 (max)
     5   6 C        6   1 H                                       1.0881145
     5   6 C        7   1 H                                       1.0879746
     5   6 C        8   1 H                                       1.0891775
     9   6 C       10   6 C                                       1.3907244
     9   6 C       11   6 C                                       1.3936598
    10   6 C       12   6 C                                       1.3838009
    11   6 C       13   6 C                                       1.3814867
    12   6 C       14   6 C                                       1.3837621
    13   6 C       14   6 C                                       1.3849497
    10   6 C       15   1 H                                       1.0793760 (min)
    11   6 C       16   1 H                                       1.0806994
    12   6 C       17   1 H                                       1.0807898
    13   6 C       18   1 H                                       1.0807360
    14   6 C       19   1 H                                       1.0801011
    20   6 C       21   1 H                                       1.0920660
    20   6 C       22   1 H                                       1.0942566
    20   6 C       23   6 C                                       1.5235834
    23   6 C       24   1 H                                       1.0882166
    23   6 C       25   1 H                                       1.0881013
    23   6 C       26   1 H                                       1.0888541

 * 2 distinct bonds (by element types)

   Z      Z             #   av. dist./Å        max./Å        min./Å
   1 H    6 C          15     1.0868886     1.0942566     1.0793760
   6 C    6 C           8     1.4207757     1.5242389     1.3814867

           -------------------------------------------------
          |               Frequency Printout                |
           -------------------------------------------------
 projected vibrational frequencies (cm⁻¹)
eigval :       -0.00    -0.00    -0.00     0.00     0.00     0.00
eigval :      -20.71    67.52    78.38   124.36   130.83   168.44
eigval :      195.06   225.94   230.67   272.34   290.41   331.14
eigval :      360.52   402.15   471.81   586.13   650.51   657.14
eigval :      683.86   696.36   735.94   757.08   775.16   867.41
eigval :      891.94   923.75   930.46   968.13   983.80   994.67
eigval :     1012.41  1018.89  1069.89  1074.83  1086.82  1115.28
eigval :     1124.08  1181.97  1202.63  1226.33  1227.70  1251.83
eigval :     1258.19  1285.02  1316.66  1409.63  1413.72  1421.10
eigval :     1442.25  1446.89  1458.12  1497.07  1499.14  1501.32
eigval :     1503.41  1577.03  1588.91  2929.00  2945.81  2961.00
eigval :     2964.37  3012.29  3014.61  3024.01  3024.78  3032.77
eigval :     3033.58  3067.31  3069.84  3078.11  3086.72  3091.90
 reduced masses (amu)
   1: 14.81   2: 11.83   3: 10.95   4: 12.50   5: 13.13   6: 13.01   7:  9.51   8:  9.04
   9: 10.15  10:  6.29  11: 10.72  12:  4.83  13:  5.99  14:  8.48  15: 10.43  16: 10.69
  17: 10.48  18: 12.95  19:  8.87  20: 18.42  21: 13.14  22: 11.17  23: 12.52  24: 10.77
  25: 13.12  26: 15.73  27:  3.83  28:  5.63  29:  4.83  30:  3.35  31:  3.56  32:  4.15
  33:  3.00  34: 10.89  35:  2.72  36:  3.22  37:  3.55  38:  4.27  39:  9.59  40:  9.22
  41:  8.50  42:  8.36  43:  4.51  44:  1.30  45:  2.05  46:  3.71  47:  3.51  48:  4.06
  49:  3.99  50:  3.28  51: 11.89  52:  2.85  53:  2.94  54:  8.52  55:  2.13  56:  2.45
  57:  7.77  58:  1.54  59:  1.56  60:  1.54  61:  1.55  62: 11.42  63: 11.44  64:  1.79
  65:  1.84  66:  1.68  67:  1.65  68:  1.83  69:  1.89  70:  1.92  71:  1.94  72:  1.33
  73:  1.38  74:  1.75  75:  1.79  76:  1.85  77:  1.87  78:  1.89
 IR intensities (km·mol⁻¹)
   1:  0.00   2:  0.15   3:  0.04   4:  0.08   5:  0.08   6:  0.18   7:  0.13   8:  0.05
   9:  0.31  10:  0.65  11:  0.08  12:  0.15  13:  0.14  14:  0.16  15:  0.15  16:  0.23
  17:  0.23  18:  0.83  19:  0.02  20:  0.96  21:  3.91  22:  0.03  23:  8.17  24: 10.53
  25:  0.89  26: 27.39  27: 23.54  28: 16.14  29: 22.11  30:  0.07  31:  0.02  32:  0.01
  33:  0.00  34:  2.75  35:  5.13  36:  1.80  37:  2.05  38:  1.31  39:  1.99  40:  2.02
  41:  0.04  42:  0.72  43:  0.05  44:  0.01  45:  0.78  46:  2.67  47:  2.23  48:  5.27
  49:  9.87  50:  0.03  51:  0.31  52:  3.09  53:  2.79  54:  0.54  55:  0.27  56:  1.09
  57:  0.38  58:  1.49  59:  2.44  60:  3.37  61:  0.61  62:  0.20  63:  6.83  64: 17.75
  65: 17.17  66: 10.60  67: 18.80  68: 50.40  69: 47.63  70: 22.80  71: 37.36  72: 24.46
  73: 19.89  74:  7.38  75: 11.84  76: 47.75  77: 74.58  78: 31.35
 Raman intensities (Ä⁴*amu⁻¹)
   1:  0.00   2:  0.00   3:  0.00   4:  0.00   5:  0.00   6:  0.00   7:  0.00   8:  0.00
   9:  0.00  10:  0.00  11:  0.00  12:  0.00  13:  0.00  14:  0.00  15:  0.00  16:  0.00
  17:  0.00  18:  0.00  19:  0.00  20:  0.00  21:  0.00  22:  0.00  23:  0.00  24:  0.00
  25:  0.00  26:  0.00  27:  0.00  28:  0.00  29:  0.00  30:  0.00  31:  0.00  32:  0.00
  33:  0.00  34:  0.00  35:  0.00  36:  0.00  37:  0.00  38:  0.00  39:  0.00  40:  0.00
  41:  0.00  42:  0.00  43:  0.00  44:  0.00  45:  0.00  46:  0.00  47:  0.00  48:  0.00
  49:  0.00  50:  0.00  51:  0.00  52:  0.00  53:  0.00  54:  0.00  55:  0.00  56:  0.00
  57:  0.00  58:  0.00  59:  0.00  60:  0.00  61:  0.00  62:  0.00  63:  0.00  64:  0.00
  65:  0.00  66:  0.00  67:  0.00  68:  0.00  69:  0.00  70:  0.00  71:  0.00  72:  0.00
  73:  0.00  74:  0.00  75:  0.00  76:  0.00  77:  0.00  78:  0.00
 output can be read by thermo (or use thermo option).
 writing <g98.out> molden fake output.
 recommended (thermochemical) frequency scaling factor: 1.0
           -------------------------------------------------
          |             Thermodynamic Functions             |
           -------------------------------------------------

Refinement of some symmetry elements was terminated before convergence was reached.
Some symmetry elements may remain unidentified.
Molecule has no symmetry elements
It seems to be the C1 point group
c1  symmetry found (for desy threshold:  0.10E+00) used in thermo

          ...................................................
          :                      SETUP                      :
          :.................................................:
          :  # frequencies                          71      :
          :  # imaginary freq.                       1      :
          :  linear?                             false      :
          :  only rotor calc.                    false      :
          :  symmetry                               c1      :
          :  rotational number                       1      :
          :  scaling factor                  1.0000000      :
          :  rotor cutoff                   50.0000000 cm⁻¹ :
          :  imag. cutoff                  -20.0000000 cm⁻¹ :
          :.................................................:

    mode    ω/cm⁻¹     T·S(HO)/kcal·mol⁻¹    T·S(FR)/kcal·mol⁻¹   T·S(vib)
   ------------------------------------------------------------------------
       1     67.52    -1.25952 ( 76.88%)    -0.96747 ( 23.12%)    -1.19199
       2     78.38    -1.17205 ( 85.79%)    -0.92330 ( 14.21%)    -1.13671
       3    124.36    -0.90382 ( 97.45%)    -0.78657 (  2.55%)    -0.90084
       4    130.83    -0.87473 ( 97.91%)    -0.77156 (  2.09%)    -0.87258
       5    168.44    -0.73132 ( 99.23%)    -0.69671 (  0.77%)    -0.73105
       6    195.06    -0.64974 ( 99.57%)    -0.65325 (  0.43%)    -0.64975
       7    225.94    -0.56976 ( 99.76%)    -0.60971 (  0.24%)    -0.56985
       8    230.67    -0.55865 ( 99.78%)    -0.60357 (  0.22%)    -0.55874
       9    272.34    -0.47148 ( 99.89%)    -0.55439 (  0.11%)    -0.47157
      10    290.41    -0.43875 ( 99.91%)    -0.53536 (  0.09%)    -0.43884
   ------------------------------------------------------------------------

   temp. (K)  partition function   enthalpy   heat capacity  entropy
                                   cal/mol     cal/K/mol   cal/K/mol   J/K/mol
 298.15  VIB  0.201E+04             5637.898     38.569     33.664
         ROT  0.126E+07              888.752      2.981     30.902
         INT  0.254E+10             6526.650     41.550     64.566
         TR   0.207E+28             1481.254      4.968     41.214
         TOT                        8007.9042    46.5177   105.7796   442.5819

       T/K    H(0)-H(T)+PV         H(T)/Eh          T*S/Eh         G(T)/Eh
   ------------------------------------------------------------------------
    298.15    0.127614E-01    0.231464E+00    0.502593E-01    0.181204E+00
   ------------------------------------------------------------------------

         :::::::::::::::::::::::::::::::::::::::::::::::::::::
         ::                  THERMODYNAMIC                  ::
         :::::::::::::::::::::::::::::::::::::::::::::::::::::
         :: total free energy         -31.372339017335 Eh   ::
         ::.................................................::
         :: total energy              -31.553543224015 Eh   ::
         :: zero point energy           0.218702107456 Eh   ::
         :: G(RRHO) w/o ZPVE           -0.037497900776 Eh   ::
         :: G(RRHO) contrib.            0.181204206680 Eh   ::
         :::::::::::::::::::::::::::::::::::::::::::::::::::::
imag cut-off (cm-1) :    5.00
 found            1  significant imaginary frequency
 writing imag mode distorted coords to xtbhess.xyz
 for further optimization.

optimized geometry written to: xtbopt.xyz


           -------------------------------------------------
          | TOTAL ENERGY              -31.553543224015 Eh   |
          | TOTAL ENTHALPY            -31.322079708850 Eh   |
          | TOTAL FREE ENERGY         -31.372339017335 Eh   |
          | GRADIENT NORM               0.000032534662 Eh/α |
          | HOMO-LUMO GAP               3.659716246631 eV   |
           -------------------------------------------------

------------------------------------------------------------------------
 * finished run on 2025/07/14 at 11:28:43.179     
------------------------------------------------------------------------
 total:
 * wall-time:     0 d,  0 h,  0 min,  6.233 sec
 *  cpu-time:     0 d,  0 h,  1 min,  1.588 sec
 * ratio c/w:     9.881 speedup
 SCF:
 * wall-time:     0 d,  0 h,  0 min,  0.086 sec
 *  cpu-time:     0 d,  0 h,  0 min,  1.034 sec
 * ratio c/w:    11.958 speedup
 ANC optimizer:
 * wall-time:     0 d,  0 h,  0 min,  2.838 sec
 *  cpu-time:     0 d,  0 h,  0 min, 33.784 sec
 * ratio c/w:    11.904 speedup
 analytical hessian:
 * wall-time:     0 d,  0 h,  0 min,  3.298 sec
 *  cpu-time:     0 d,  0 h,  0 min, 26.666 sec
 * ratio c/w:     8.085 speedup

