      -----------------------------------------------------------      
     |                   =====================                   |     
     |                           x T B                           |     
     |                   =====================                   |     
     |                         S. Grimme                         |     
     |          Mulliken Center for Theoretical Chemistry        |     
     |                    University of Bonn                     |     
      -----------------------------------------------------------      

   * xtb version 6.7.0 (08769fc) compiled by 'albert@albert-system' on 2024-03-04

   xtb is free software: you can redistribute it and/or modify it under
   the terms of the GNU Lesser General Public License as published by
   the Free Software Foundation, either version 3 of the License, or
   (at your option) any later version.
   
   xtb is distributed in the hope that it will be useful,
   but WITHOUT ANY WARRANTY; without even the implied warranty of
   MERCHANTABILITY or FITNESS FOR A PARTICULAR PURPOSE.  See the
   GNU Lesser General Public License for more details.
   
   Cite this work as:
   * C. Bannwarth, E. Caldeweyher, S. Ehlert, A. Hansen, P. Pracht,
     J. Seibert, S. Spicher, S. Grimme, WIREs Comput. Mol. Sci., 2020, 11,
     e01493. DOI: 10.1002/wcms.1493
   
   for GFN2-xTB:
   * C. Bannwarth, S. Ehlert and S. Grimme., J. Chem. Theory Comput., 2019,
     15, 1652-1671. DOI: 10.1021/acs.jctc.8b01176
   for GFN1-xTB:
   * S. Grimme, C. Bannwarth, P. Shushkov, J. Chem. Theory Comput., 2017,
     13, 1989-2009. DOI: 10.1021/acs.jctc.7b00118
   for GFN0-xTB:
   * P. Pracht, E. Caldeweyher, S. Ehlert, S. Grimme, ChemRxiv, 2019, preprint.
     DOI: 10.26434/chemrxiv.8326202.v1
   for GFN-FF:
   * S. Spicher and S. Grimme, Angew. Chem. Int. Ed., 2020, 59, 15665-15673.
     DOI: 10.1002/anie.202004239
   
   for ALPB and GBSA implicit solvation:
   * S. Ehlert, M. Stahn, S. Spicher, S. Grimme, J. Chem. Theory Comput.,
     2021, 17, 4250-4261. DOI: 10.1021/acs.jctc.1c00471
   
   for ddCOSMO and CPCM-X implicit solvation:
   * M. Stahn, S. Ehlert, S. Grimme, J. Phys. Chem. A,
     2023, XX, XXXX-XXXX. DOI: 10.1021/acs.jpca.3c04382
   
   for DFT-D4:
   * E. Caldeweyher, C. Bannwarth and S. Grimme, J. Chem. Phys., 2017,
     147, 034112. DOI: 10.1063/1.4993215
   * E. Caldeweyher, S. Ehlert, A. Hansen, H. Neugebauer, S. Spicher,
     C. Bannwarth and S. Grimme, J. Chem. Phys., 2019, 150, 154122.
     DOI: 10.1063/1.5090222
   * E. Caldeweyher, J.-M. Mewes, S. Ehlert and S. Grimme, Phys. Chem. Chem. Phys.
     2020, 22, 8499-8512. DOI: 10.1039/D0CP00502A
   
   for sTDA-xTB:
   * S. Grimme and C. Bannwarth, J. Chem. Phys., 2016, 145, 054103.
     DOI: 10.1063/1.4959605
   
   in the mass-spec context:
   * V. Asgeirsson, C. Bauer and S. Grimme, Chem. Sci., 2017, 8, 4879.
     DOI: 10.1039/c7sc00601b
   * J. Koopman and S. Grimme, ACS Omega 2019, 4, 12, 15120-15133.
     DOI: 10.1021/acsomega.9b02011
   
   for metadynamics refer to:
   * S. Grimme, J. Chem. Theory Comput., 2019, 155, 2847-2862
     DOI: 10.1021/acs.jctc.9b00143
   
   for SPH calculations refer to:
   * S. Spicher and S. Grimme, J. Chem. Theory Comput., 2021, 17, 1701-1714
     DOI: 10.1021/acs.jctc.0c01306
   
   for ONIOM refer to:
   * C. Plett, A. Katbashev, S. Ehlert, S. Grimme, M. Bursch,
     Phys. Chem. Chem. Phys., 2023, 25, 17860-17868. DOI: 10.1039/D3CP02178E
   
   for DIPRO refer to:
   * J. Kohn, N. Gildemeister, S. Grimme, D. Fazzi, A. Hansen,
     J. Chem. Phys., 2023, just accepted.
   
   for PTB refer to:
   * S. Grimme, M. Mueller, A. Hansen, J. Chem. Phys., 2023, 158, 124111.
     DOI: 10.1063/5.0137838
   
   with help from (in alphabetical order)
   P. Atkinson, C. Bannwarth, F. Bohle, G. Brandenburg, E. Caldeweyher
   M. Checinski, S. Dohm, S. Ehlert, S. Ehrlich, I. Gerasimov, C. Hölzer
   A. Katbashev, J. Kohn, J. Koopman, C. Lavigne, S. Lehtola, F. März, M. Müller,
   F. Musil, H. Neugebauer, J. Pisarek, C. Plett, P. Pracht, F. Pultar,
   J. Seibert, P. Shushkov, S. Spicher, M. Stahn, M. Steiner, T. Strunk,
   J. Stückrath, T. Rose, and J. Unsleber
   
 * started run on 2025/07/14 at 11:28:26.041     
   ID    Z sym.   atoms
    1   15 P      1
    2    6 C      2, 5, 9-14, 20, 23
    3    1 H      3, 4, 6-8, 15-19, 21, 22, 24-26

           -------------------------------------------------
          |                Calculation Setup                |
           -------------------------------------------------

          program call               : /home/minenky/programs/xtb/xtb-dist/bin/xtb m1_00_PEt2Ph-PBE0-D3-TZ-uniMM_23.xyz --charge 0 --T --ohess extreme --cycles 5000 --acc 0.01 --iterations 5000
          coordinate file            : m1_00_PEt2Ph-PBE0-D3-TZ-uniMM_23.xyz
          omp threads                :                    12

########################################################################
[WARNING] Please study the warnings concerning your input carefully
-1- prog_main_parseArguments: Unknown option '--T' provided
########################################################################

           -------------------------------------------------
          |                 G F N 2 - x T B                 |
           -------------------------------------------------

        Reference                      10.1021/acs.jctc.8b01176
      * Hamiltonian:
        H0-scaling (s, p, d)           1.850000    2.230000    2.230000
        zeta-weighting                 0.500000
      * Dispersion:
        s8                             2.700000
        a1                             0.520000
        a2                             5.000000
        s9                             5.000000
      * Repulsion:
        kExp                           1.500000    1.000000
        rExp                           1.000000
      * Coulomb:
        alpha                          2.000000
        third order                    shell-resolved
        anisotropic                    true
        a3                             3.000000
        a5                             4.000000
        cn-shift                       1.200000
        cn-exp                         4.000000
        max-rad                        5.000000


          ...................................................
          :                      SETUP                      :
          :.................................................:
          :  # basis functions                  65          :
          :  # atomic orbitals                  64          :
          :  # shells                           38          :
          :  # electrons                        60          :
          :  max. iterations                  5000          :
          :  Hamiltonian                  GFN2-xTB          :
          :  restarted?                      false          :
          :  GBSA solvation                  false          :
          :  PC potential                    false          :
          :  electronic temp.          300.0000000     K    :
          :  accuracy                    0.0100000          :
          :  -> integral cutoff          0.4500000E+02      :
          :  -> integral neglect         0.1000000E-09      :
          :  -> SCF convergence          0.1000000E-07 Eh   :
          :  -> wf. convergence          0.1000000E-05 e    :
          :  Broyden damping             0.4000000          :
          :  net charge                          0          :
          :  unpaired electrons                  0          :
          ...................................................

 iter      E             dE          RMSdq      gap      omega  full diag
   1    -32.0152429 -0.320152E+02  0.376E+00    4.03       0.0  T
   2    -32.0601604 -0.449175E-01  0.226E+00    3.59       1.0  T
   3    -32.0600810  0.793707E-04  0.859E-01    3.33       1.0  T
   4    -32.0610177 -0.936726E-03  0.274E-01    3.38       1.0  T
   5    -32.0621552 -0.113747E-02  0.121E-01    3.41       1.0  T
   6    -32.0623533 -0.198128E-03  0.432E-02    3.40       1.0  T
   7    -32.0623677 -0.143956E-04  0.161E-02    3.40       1.2  T
   8    -32.0623686 -0.856639E-06  0.703E-03    3.40       2.8  T
   9    -32.0623691 -0.515734E-06  0.152E-03    3.40      12.9  T
  10    -32.0623691 -0.294249E-07  0.551E-04    3.40      35.6  T
  11    -32.0623691 -0.387068E-09  0.240E-04    3.40      81.6  T
  12    -32.0623691 -0.400391E-09  0.575E-05    3.40     341.0  T
  13    -32.0623691 -0.743938E-11  0.269E-05    3.40     728.6  T
  14    -32.0623691 -0.213873E-11  0.105E-05    3.40    1868.3  T
  15    -32.0623691 -0.248690E-12  0.289E-06    3.40    6794.4  T
  16    -32.0623691 -0.127898E-12  0.131E-06    3.40   14943.4  T

   *** convergence criteria satisfied after 16 iterations ***

         #    Occupation            Energy/Eh            Energy/eV
      -------------------------------------------------------------
         1        2.0000           -0.6599792             -17.9589
       ...           ...                  ...                  ...
        24        2.0000           -0.4419243             -12.0254
        25        2.0000           -0.4243473             -11.5471
        26        2.0000           -0.4187145             -11.3938
        27        2.0000           -0.4071576             -11.0793
        28        2.0000           -0.4024089             -10.9501
        29        2.0000           -0.3999905             -10.8843
        30        2.0000           -0.3560882              -9.6897 (HOMO)
        31                         -0.2309985              -6.2858 (LUMO)
        32                         -0.2228215              -6.0633
        33                         -0.1552179              -4.2237
        34                         -0.1396808              -3.8009
        35                         -0.0942411              -2.5644
       ...                                ...                  ...
        64                          0.7838496              21.3296
      -------------------------------------------------------------
                  HL-Gap            0.1250897 Eh            3.4039 eV
             Fermi-level           -0.2935433 Eh           -7.9877 eV

 SCC (total)                   0 d,  0 h,  0 min,  0.087 sec
 SCC setup                      ...        0 min,  0.001 sec (  1.034%)
 Dispersion                     ...        0 min,  0.000 sec (  0.175%)
 classical contributions        ...        0 min,  0.000 sec (  0.034%)
 integral evaluation            ...        0 min,  0.002 sec (  2.181%)
 iterations                     ...        0 min,  0.083 sec ( 94.478%)
 molecular gradient             ...        0 min,  0.002 sec (  1.991%)
 printout                       ...        0 min,  0.000 sec (  0.088%)

         :::::::::::::::::::::::::::::::::::::::::::::::::::::
         ::                     SUMMARY                     ::
         :::::::::::::::::::::::::::::::::::::::::::::::::::::
         :: total energy             -31.547581144601 Eh    ::
         :: gradient norm              0.038935593173 Eh/a0 ::
         :: HOMO-LUMO gap              3.403862715439 eV    ::
         ::.................................................::
         :: SCC energy               -32.062197045512 Eh    ::
         :: -> isotropic ES            0.004044699184 Eh    ::
         :: -> anisotropic ES          0.006184124874 Eh    ::
         :: -> anisotropic XC          0.022058184097 Eh    ::
         :: -> dispersion             -0.024215474522 Eh    ::
         :: repulsion energy           0.514615900911 Eh    ::
         :: add. restraining           0.000000000000 Eh    ::
         :: total charge               0.000000000000 e     ::
         :::::::::::::::::::::::::::::::::::::::::::::::::::::

      ----------------------------------------------------------- 
     |                   =====================                   |
     |                        A N C O P T                        |
     |                   =====================                   |
     |               Approximate Normal Coordinate               |
     |                Rational Function Optimizer                |
      ----------------------------------------------------------- 
      ----------------------------------------------------------- 
     |                   =====================                   |
     |                        A N C O P T                        |
     |                   =====================                   |
     |               Approximate Normal Coordinate               |
     |                Rational Function Optimizer                |
      ----------------------------------------------------------- 

          ...................................................
          :                      SETUP                      :
          :.................................................:
          :   optimization level           extreme          :
          :   max. optcycles                  5000          :
          :   ANC micro-cycles                  20          :
          :   degrees of freedom                72          :
          :.................................................:
          :   RF solver                   davidson          :
          :   write xtbopt.log                true          :
          :   linear?                        false          :
          :   energy convergence         0.5000000E-07 Eh   :
          :   grad. convergence          0.5000000E-04 Eh/α :
          :   maxmium RF displ.          1.0000000          :
          :   Hlow (freq-cutoff)         0.1000000E-01      :
          :   Hmax (freq-cutoff)         5.0000000          :
          :   S6 in model hess.         20.0000000          :
          ...................................................

generating ANC from model Hessian ...
Using Lindh-Hessian (1995)
 Shifting diagonal of input Hessian by   9.140282646850994E-003
 Lowest  eigenvalues of input Hessian
    0.000000    0.000000    0.000000    0.000000    0.000000    0.000000
    0.010000    0.010296    0.010523    0.010679    0.011417    0.012844
    0.015131    0.017956    0.018362    0.019707    0.023113    0.023826
 Highest eigenvalues
    1.346810    1.534872    1.561706    1.863976    1.965657    1.985586
 

........................................................................
.............................. CYCLE    1 ..............................
........................................................................

 iter      E             dE          RMSdq      gap      omega  full diag
   1    -32.0623691 -0.320624E+02  0.522E-07    3.40       0.0  T
   2    -32.0623691 -0.142109E-13  0.302E-07    3.40   64955.0  T
   3    -32.0623691  0.710543E-14  0.202E-07    3.40   96978.1  T
     SCC iter.                  ...        0 min,  0.072 sec
     gradient                   ...        0 min,  0.002 sec
 * total energy  :   -31.5475811 Eh     change        0.0000000E+00 Eh
   gradient norm :     0.0389356 Eh/α   predicted     0.0000000E+00 (    NaN%)
   displ. norm   :     0.2765833 α      lambda       -0.5943957E-02
   maximum displ.:     0.1204995 α      in ANC's #21, #8, #3, ...

........................................................................
.............................. CYCLE    2 ..............................
........................................................................

 iter      E             dE          RMSdq      gap      omega  full diag
   1    -32.0678749 -0.320679E+02  0.338E-01    3.60       0.0  T
   2    -32.0680317 -0.156803E-03  0.157E-01    3.62       1.0  T
   3    -32.0680466 -0.148619E-04  0.547E-02    3.64       1.0  T
   4    -32.0680458  0.771429E-06  0.229E-02    3.63       1.0  T
   5    -32.0680496 -0.384745E-05  0.704E-03    3.63       2.8  T
   6    -32.0680504 -0.785023E-06  0.276E-03    3.63       7.1  T
   7    -32.0680505 -0.330978E-07  0.976E-04    3.63      20.1  T
   8    -32.0680505  0.769425E-09  0.396E-04    3.63      49.5  T
   9    -32.0680505 -0.277438E-08  0.982E-05    3.63     199.7  T
  10    -32.0680505 -0.200195E-09  0.426E-05    3.63     460.3  T
  11    -32.0680505 -0.594724E-11  0.137E-05    3.63    1431.4  T
  12    -32.0680505 -0.270006E-12  0.440E-06    3.63    4458.4  T
  13    -32.0680505 -0.355271E-13  0.197E-06    3.63    9963.8  T
     SCC iter.                  ...        0 min,  0.074 sec
     gradient                   ...        0 min,  0.002 sec
 * total energy  :   -31.5507175 Eh     change       -0.3136351E-02 Eh
   gradient norm :     0.0117284 Eh/α   predicted    -0.3199443E-02 (   2.01%)
   displ. norm   :     0.2057609 α      lambda       -0.8380504E-03
   maximum displ.:     0.1465155 α      in ANC's #3, #5, #7, ...

........................................................................
.............................. CYCLE    3 ..............................
........................................................................

 iter      E             dE          RMSdq      gap      omega  full diag
   1    -32.0705984 -0.320706E+02  0.112E-01    3.60       0.0  T
   2    -32.0706011 -0.267541E-05  0.633E-02    3.59       1.0  T
   3    -32.0706003  0.765480E-06  0.101E-02    3.59       1.9  T
   4    -32.0706012 -0.853689E-06  0.470E-03    3.59       4.2  T
   5    -32.0706016 -0.373386E-06  0.126E-03    3.59      15.6  T
   6    -32.0706016 -0.974782E-08  0.522E-04    3.59      37.6  T
   7    -32.0706016 -0.749758E-09  0.171E-04    3.59     114.5  T
   8    -32.0706016 -0.412356E-09  0.573E-05    3.59     342.1  T
   9    -32.0706016 -0.286420E-10  0.198E-05    3.59     992.3  T
  10    -32.0706016 -0.370193E-11  0.924E-06    3.59    2122.7  T
  11    -32.0706016 -0.405009E-12  0.338E-06    3.59    5806.0  T
     SCC iter.                  ...        0 min,  0.073 sec
     gradient                   ...        0 min,  0.002 sec
 * total energy  :   -31.5512692 Eh     change       -0.5516692E-03 Eh
   gradient norm :     0.0047393 Eh/α   predicted    -0.4368436E-03 ( -20.81%)
   displ. norm   :     0.2130883 α      lambda       -0.3834851E-03
   maximum displ.:     0.1586389 α      in ANC's #3, #5, #2, ...

........................................................................
.............................. CYCLE    4 ..............................
........................................................................

 iter      E             dE          RMSdq      gap      omega  full diag
   1    -32.0712749 -0.320713E+02  0.622E-02    3.59       0.0  T
   2    -32.0712755 -0.657107E-06  0.372E-02    3.59       1.0  T
   3    -32.0712753  0.207087E-06  0.571E-03    3.59       3.4  T
   4    -32.0712757 -0.325817E-06  0.143E-03    3.59      13.8  T
   5    -32.0712757 -0.256934E-08  0.949E-04    3.59      20.7  T
   6    -32.0712757 -0.108561E-07  0.266E-04    3.59      73.6  T
   7    -32.0712757  0.413465E-10  0.100E-04    3.59     195.6  T
   8    -32.0712757 -0.104038E-09  0.309E-05    3.59     635.0  T
   9    -32.0712757 -0.542144E-11  0.112E-05    3.59    1750.9  T
  10    -32.0712757 -0.193978E-11  0.569E-06    3.59    3445.3  T
  11    -32.0712757 -0.142109E-12  0.173E-06    3.59   11364.6  T
     SCC iter.                  ...        0 min,  0.073 sec
     gradient                   ...        0 min,  0.002 sec
 * total energy  :   -31.5515574 Eh     change       -0.2882634E-03 Eh
   gradient norm :     0.0035084 Eh/α   predicted    -0.2004623E-03 ( -30.46%)
   displ. norm   :     0.2280162 α      lambda       -0.2706148E-03
   maximum displ.:     0.1596677 α      in ANC's #3, #5, #2, ...

........................................................................
.............................. CYCLE    5 ..............................
........................................................................

 iter      E             dE          RMSdq      gap      omega  full diag
   1    -32.0712285 -0.320712E+02  0.526E-02    3.59       0.0  T
   2    -32.0712288 -0.284196E-06  0.313E-02    3.59       1.0  T
   3    -32.0712287  0.869646E-07  0.383E-03    3.59       5.1  T
   4    -32.0712289 -0.151443E-06  0.118E-03    3.59      16.6  T
   5    -32.0712289 -0.559476E-08  0.535E-04    3.59      36.7  T
   6    -32.0712289 -0.312499E-08  0.226E-04    3.59      86.7  T
   7    -32.0712289 -0.409166E-09  0.540E-05    3.59     363.3  T
   8    -32.0712289 -0.779465E-11  0.209E-05    3.59     937.8  T
   9    -32.0712289 -0.139266E-11  0.657E-06    3.59    2985.2  T
  10    -32.0712289 -0.213163E-12  0.249E-06    3.59    7880.3  T
     SCC iter.                  ...        0 min,  0.072 sec
     gradient                   ...        0 min,  0.002 sec
 * total energy  :   -31.5517706 Eh     change       -0.2131501E-03 Eh
   gradient norm :     0.0044630 Eh/α   predicted    -0.1423483E-03 ( -33.22%)
   displ. norm   :     0.2486041 α      lambda       -0.2192917E-03
   maximum displ.:     0.1690280 α      in ANC's #3, #5, #2, ...

........................................................................
.............................. CYCLE    6 ..............................
........................................................................

 iter      E             dE          RMSdq      gap      omega  full diag
   1    -32.0708927 -0.320709E+02  0.570E-02    3.60       0.0  T
   2    -32.0708931 -0.350866E-06  0.340E-02    3.60       1.0  T
   3    -32.0708929  0.127756E-06  0.412E-03    3.60       4.8  T
   4    -32.0708931 -0.191361E-06  0.130E-03    3.60      15.1  T
   5    -32.0708931 -0.128118E-07  0.654E-04    3.60      30.0  T
   6    -32.0708932 -0.570385E-08  0.263E-04    3.60      74.5  T
   7    -32.0708932 -0.337799E-09  0.715E-05    3.60     274.3  T
   8    -32.0708932 -0.332321E-10  0.247E-05    3.60     794.8  T
   9    -32.0708932 -0.703437E-11  0.106E-05    3.60    1851.1  T
  10    -32.0708932 -0.127898E-11  0.290E-06    3.60    6768.4  T
  11    -32.0708932 -0.852651E-13  0.103E-06    3.60   18973.1  T
     SCC iter.                  ...        0 min,  0.073 sec
     gradient                   ...        0 min,  0.002 sec
 * total energy  :   -31.5519328 Eh     change       -0.1621974E-03 Eh
   gradient norm :     0.0036351 Eh/α   predicted    -0.1164241E-03 ( -28.22%)
   displ. norm   :     0.2112179 α      lambda       -0.1233048E-03
   maximum displ.:     0.1431246 α      in ANC's #3, #2, #5, ...

........................................................................
.............................. CYCLE    7 ..............................
........................................................................

 iter      E             dE          RMSdq      gap      omega  full diag
   1    -32.0710165 -0.320710E+02  0.513E-02    3.60       0.0  T
   2    -32.0710168 -0.265091E-06  0.304E-02    3.60       1.0  T
   3    -32.0710166  0.133954E-06  0.326E-03    3.60       6.0  T
   4    -32.0710168 -0.175514E-06  0.116E-03    3.60      17.0  T
   5    -32.0710168 -0.225026E-07  0.526E-04    3.60      37.3  T
   6    -32.0710168 -0.205963E-08  0.186E-04    3.60     105.6  T
   7    -32.0710168 -0.197176E-10  0.458E-05    3.60     428.6  T
   8    -32.0710168 -0.275477E-10  0.219E-05    3.60     894.0  T
   9    -32.0710168 -0.618883E-11  0.687E-06    3.60    2855.8  T
  10    -32.0710168 -0.227374E-12  0.160E-06    3.60   12286.2  T
     SCC iter.                  ...        0 min,  0.072 sec
     gradient                   ...        0 min,  0.002 sec
 * total energy  :   -31.5520158 Eh     change       -0.8300892E-04 Eh
   gradient norm :     0.0024470 Eh/α   predicted    -0.6440352E-04 ( -22.41%)
   displ. norm   :     0.1199636 α      lambda       -0.4725804E-04
   maximum displ.:     0.0780060 α      in ANC's #3, #2, #5, ...

........................................................................
.............................. CYCLE    8 ..............................
........................................................................

 iter      E             dE          RMSdq      gap      omega  full diag
   1    -32.0716632 -0.320717E+02  0.366E-02    3.60       0.0  T
   2    -32.0716633 -0.114202E-06  0.215E-02    3.60       1.0  T
   3    -32.0716632  0.547362E-07  0.356E-03    3.60       5.5  T
   4    -32.0716633 -0.866917E-07  0.764E-04    3.60      25.7  T
   5    -32.0716633  0.141552E-08  0.556E-04    3.60      35.3  T
   6    -32.0716633 -0.331830E-08  0.122E-04    3.60     160.2  T
   7    -32.0716633 -0.160298E-10  0.367E-05    3.60     534.8  T
   8    -32.0716633 -0.562039E-11  0.141E-05    3.60    1386.7  T
   9    -32.0716633 -0.137845E-11  0.460E-06    3.60    4260.9  T
  10    -32.0716633 -0.227374E-12  0.212E-06    3.60    9255.7  T
     SCC iter.                  ...        0 min,  0.073 sec
     gradient                   ...        0 min,  0.002 sec
 * total energy  :   -31.5520491 Eh     change       -0.3327251E-04 Eh
   gradient norm :     0.0014901 Eh/α   predicted    -0.2396933E-04 ( -27.96%)
   displ. norm   :     0.1498860 α      lambda       -0.2685675E-04
   maximum displ.:     0.1007824 α      in ANC's #2, #3, #1, ...

........................................................................
.............................. CYCLE    9 ..............................
........................................................................

 iter      E             dE          RMSdq      gap      omega  full diag
   1    -32.0721127 -0.320721E+02  0.503E-02    3.60       0.0  T
   2    -32.0721129 -0.153076E-06  0.296E-02    3.60       1.0  T
   3    -32.0721128  0.431967E-07  0.414E-03    3.60       4.7  T
   4    -32.0721129 -0.923260E-07  0.890E-04    3.60      22.0  T
   5    -32.0721129  0.874650E-09  0.355E-04    3.60      55.2  T
   6    -32.0721129 -0.146765E-08  0.130E-04    3.60     150.7  T
   7    -32.0721129 -0.157243E-09  0.333E-05    3.60     588.1  T
   8    -32.0721129 -0.353850E-11  0.130E-05    3.60    1514.1  T
   9    -32.0721129 -0.117950E-11  0.434E-06    3.60    4517.0  T
  10    -32.0721129 -0.106581E-12  0.166E-06    3.60   11784.2  T
     SCC iter.                  ...        0 min,  0.079 sec
     gradient                   ...        0 min,  0.002 sec
 * total energy  :   -31.5520751 Eh     change       -0.2600228E-04 Eh
   gradient norm :     0.0013550 Eh/α   predicted    -0.1356699E-04 ( -47.82%)
   displ. norm   :     0.0778253 α      lambda       -0.1593600E-04
   maximum displ.:     0.0563461 α      in ANC's #2, #9, #1, ...

........................................................................
.............................. CYCLE   10 ..............................
........................................................................

 iter      E             dE          RMSdq      gap      omega  full diag
   1    -32.0725473 -0.320725E+02  0.283E-02    3.60       0.0  T
   2    -32.0725474 -0.152494E-06  0.169E-02    3.60       1.2  T
   3    -32.0725474  0.781141E-07  0.312E-03    3.60       6.3  T
   4    -32.0725474 -0.974088E-07  0.101E-03    3.60      19.4  T
   5    -32.0725475 -0.589120E-08  0.516E-04    3.60      38.0  T
   6    -32.0725475 -0.367661E-08  0.242E-04    3.60      81.0  T
   7    -32.0725475 -0.118618E-09  0.542E-05    3.60     362.0  T
   8    -32.0725475 -0.533618E-11  0.107E-05    3.60    1836.5  T
   9    -32.0725475 -0.575540E-12  0.558E-06    3.60    3514.3  T
  10    -32.0725475 -0.106581E-12  0.206E-06    3.60    9525.3  T
     SCC iter.                  ...        0 min,  0.073 sec
     gradient                   ...        0 min,  0.002 sec
 * total energy  :   -31.5520939 Eh     change       -0.1888113E-04 Eh
   gradient norm :     0.0014226 Eh/α   predicted    -0.7989704E-05 ( -57.68%)
   displ. norm   :     0.1393582 α      lambda       -0.2565865E-04
   maximum displ.:     0.0949520 α      in ANC's #2, #9, #1, ...

........................................................................
.............................. CYCLE   11 ..............................
........................................................................

 iter      E             dE          RMSdq      gap      omega  full diag
   1    -32.0718451 -0.320718E+02  0.474E-02    3.60       0.0  T
   2    -32.0718454 -0.263661E-06  0.281E-02    3.60       1.0  T
   3    -32.0718450  0.421196E-06  0.456E-03    3.60       4.3  T
   4    -32.0718455 -0.476954E-06  0.146E-03    3.60      13.5  T
   5    -32.0718455 -0.359134E-07  0.519E-04    3.60      37.8  T
   6    -32.0718455 -0.131378E-08  0.208E-04    3.60      94.3  T
   7    -32.0718455 -0.143316E-10  0.457E-05    3.60     429.0  T
   8    -32.0718455 -0.198028E-10  0.176E-05    3.60    1113.6  T
   9    -32.0718455 -0.176215E-11  0.698E-06    3.60    2808.9  T
  10    -32.0718455 -0.696332E-12  0.275E-06    3.60    7121.6  T
     SCC iter.                  ...        0 min,  0.073 sec
     gradient                   ...        0 min,  0.002 sec
 * total energy  :   -31.5521202 Eh     change       -0.2629448E-04 Eh
   gradient norm :     0.0014224 Eh/α   predicted    -0.1294142E-04 ( -50.78%)
   displ. norm   :     0.1676897 α      lambda       -0.2076022E-04
   maximum displ.:     0.1032375 α      in ANC's #2, #9, #5, ...

........................................................................
.............................. CYCLE   12 ..............................
........................................................................

 iter      E             dE          RMSdq      gap      omega  full diag
   1    -32.0716769 -0.320717E+02  0.555E-02    3.59       0.0  T
   2    -32.0716776 -0.642446E-06  0.325E-02    3.59       1.0  T
   3    -32.0716773  0.282279E-06  0.546E-03    3.59       3.6  T
   4    -32.0716776 -0.306261E-06  0.241E-03    3.59       8.1  T
   5    -32.0716777 -0.800261E-07  0.838E-04    3.59      23.4  T
   6    -32.0716777 -0.930546E-08  0.414E-04    3.59      47.3  T
   7    -32.0716777 -0.266567E-09  0.904E-05    3.59     217.0  T
   8    -32.0716777 -0.195755E-10  0.164E-05    3.59    1192.7  T
   9    -32.0716777 -0.279243E-11  0.840E-06    3.59    2333.4  T
  10    -32.0716777 -0.405009E-12  0.346E-06    3.59    5667.5  T
     SCC iter.                  ...        0 min,  0.073 sec
     gradient                   ...        0 min,  0.002 sec
 * total energy  :   -31.5521407 Eh     change       -0.2050980E-04 Eh
   gradient norm :     0.0012937 Eh/α   predicted    -0.1051488E-04 ( -48.73%)
   displ. norm   :     0.1547762 α      lambda       -0.1350087E-04
   maximum displ.:     0.0905347 α      in ANC's #2, #4, #6, ...

........................................................................
.............................. CYCLE   13 ..............................
........................................................................

 iter      E             dE          RMSdq      gap      omega  full diag
   1    -32.0715748 -0.320716E+02  0.495E-02    3.59       0.0  T
   2    -32.0715753 -0.502729E-06  0.288E-02    3.59       1.0  T
   3    -32.0715751  0.175055E-06  0.462E-03    3.59       4.2  T
   4    -32.0715753 -0.180768E-06  0.222E-03    3.59       8.8  T
   5    -32.0715753 -0.715711E-07  0.658E-04    3.59      29.8  T
   6    -32.0715753 -0.626881E-08  0.333E-04    3.59      58.8  T
   7    -32.0715753 -0.184862E-09  0.605E-05    3.59     324.0  T
   8    -32.0715753 -0.814993E-11  0.134E-05    3.59    1466.2  T
   9    -32.0715753 -0.199663E-11  0.713E-06    3.59    2751.3  T
  10    -32.0715753 -0.483169E-12  0.232E-06    3.59    8437.7  T
     SCC iter.                  ...        0 min,  0.073 sec
     gradient                   ...        0 min,  0.002 sec
 * total energy  :   -31.5521571 Eh     change       -0.1638632E-04 Eh
   gradient norm :     0.0009960 Eh/α   predicted    -0.6822666E-05 ( -58.36%)
   displ. norm   :     0.2462847 α      lambda       -0.2485337E-04
   maximum displ.:     0.1284410 α      in ANC's #2, #4, #5, ...

........................................................................
.............................. CYCLE   14 ..............................
........................................................................

 iter      E             dE          RMSdq      gap      omega  full diag
   1    -32.0715558 -0.320716E+02  0.762E-02    3.59       0.0  T
   2    -32.0715571 -0.130840E-05  0.446E-02    3.59       1.0  T
   3    -32.0715567  0.395228E-06  0.762E-03    3.59       2.6  T
   4    -32.0715572 -0.458334E-06  0.328E-03    3.59       6.0  T
   5    -32.0715573 -0.125576E-06  0.116E-03    3.59      16.9  T
   6    -32.0715573 -0.219265E-07  0.560E-04    3.59      35.0  T
   7    -32.0715573 -0.554927E-09  0.114E-04    3.59     171.4  T
   8    -32.0715573 -0.242224E-10  0.220E-05    3.59     889.8  T
   9    -32.0715573 -0.346745E-11  0.123E-05    3.59    1593.1  T
  10    -32.0715573 -0.130029E-11  0.301E-06    3.59    6521.5  T
  11    -32.0715573 -0.497380E-13  0.143E-06    3.59   13694.6  T
     SCC iter.                  ...        0 min,  0.073 sec
     gradient                   ...        0 min,  0.002 sec
 * total energy  :   -31.5521901 Eh     change       -0.3294753E-04 Eh
   gradient norm :     0.0020559 Eh/α   predicted    -0.1276373E-04 ( -61.26%)
   displ. norm   :     0.2468574 α      lambda       -0.4739925E-04
   maximum displ.:     0.1354426 α      in ANC's #4, #2, #5, ...

........................................................................
.............................. CYCLE   15 ..............................
........................................................................

 iter      E             dE          RMSdq      gap      omega  full diag
   1    -32.0713344 -0.320713E+02  0.751E-02    3.59       0.0  T
   2    -32.0713358 -0.139048E-05  0.438E-02    3.59       1.0  T
   3    -32.0713354  0.323311E-06  0.780E-03    3.59       2.5  T
   4    -32.0713358 -0.399960E-06  0.331E-03    3.59       5.9  T
   5    -32.0713359 -0.105822E-06  0.119E-03    3.59      16.5  T
   6    -32.0713360 -0.256646E-07  0.585E-04    3.59      33.5  T
   7    -32.0713360 -0.683869E-09  0.111E-04    3.59     176.0  T
   8    -32.0713360 -0.166267E-10  0.234E-05    3.59     837.9  T
   9    -32.0713360 -0.436984E-11  0.123E-05    3.59    1596.8  T
  10    -32.0713360 -0.104450E-11  0.309E-06    3.59    6346.3  T
  11    -32.0713360 -0.639488E-13  0.145E-06    3.59   13491.5  T
     SCC iter.                  ...        0 min,  0.073 sec
     gradient                   ...        0 min,  0.002 sec
 * total energy  :   -31.5522358 Eh     change       -0.4569823E-04 Eh
   gradient norm :     0.0035300 Eh/α   predicted    -0.2514791E-04 ( -44.97%)
   displ. norm   :     0.3978928 α      lambda       -0.1007340E-03
   maximum displ.:     0.2344668 α      in ANC's #4, #2, #5, ...

........................................................................
.............................. CYCLE   16 ..............................
........................................................................

 iter      E             dE          RMSdq      gap      omega  full diag
   1    -32.0704589 -0.320705E+02  0.119E-01    3.59       0.0  T
   2    -32.0704630 -0.412687E-05  0.693E-02    3.59       1.0  T
   3    -32.0704623  0.770341E-06  0.138E-02    3.59       1.4  T
   4    -32.0704633 -0.106190E-05  0.524E-03    3.59       3.7  T
   5    -32.0704635 -0.212317E-06  0.209E-03    3.59       9.4  T
   6    -32.0704636 -0.825909E-07  0.101E-03    3.59      19.3  T
   7    -32.0704636 -0.212882E-08  0.219E-04    3.59      89.6  T
   8    -32.0704636 -0.456950E-10  0.421E-05    3.59     465.8  T
   9    -32.0704636 -0.141256E-10  0.210E-05    3.59     935.6  T
  10    -32.0704636 -0.233769E-11  0.606E-06    3.59    3237.4  T
  11    -32.0704636 -0.270006E-12  0.255E-06    3.59    7684.3  T
     SCC iter.                  ...        0 min,  0.073 sec
     gradient                   ...        0 min,  0.002 sec
 * total energy  :   -31.5523238 Eh     change       -0.8798516E-04 Eh
   gradient norm :     0.0070166 Eh/α   predicted    -0.5834346E-04 ( -33.69%)
   displ. norm   :     0.5648327 α      lambda       -0.1837066E-03
   maximum displ.:     0.3695845 α      in ANC's #4, #5, #3, ...

........................................................................
.............................. CYCLE   17 ..............................
........................................................................

 iter      E             dE          RMSdq      gap      omega  full diag
   1    -32.0683068 -0.320683E+02  0.166E-01    3.59       0.0  T
   2    -32.0683171 -0.102969E-04  0.963E-02    3.59       1.0  T
   3    -32.0683159  0.119717E-05  0.221E-02    3.59       1.0  T
   4    -32.0683179 -0.197635E-05  0.767E-03    3.59       2.6  T
   5    -32.0683182 -0.361904E-06  0.317E-03    3.59       6.2  T
   6    -32.0683184 -0.191237E-06  0.152E-03    3.59      12.9  T
   7    -32.0683184 -0.518425E-08  0.375E-04    3.59      52.4  T
   8    -32.0683184 -0.126583E-09  0.713E-05    3.59     275.2  T
   9    -32.0683184 -0.433289E-10  0.336E-05    3.59     582.9  T
  10    -32.0683184 -0.470379E-11  0.117E-05    3.59    1676.3  T
  11    -32.0683184 -0.106581E-11  0.433E-06    3.59    4529.8  T
  12    -32.0683184 -0.994760E-13  0.159E-06    3.59   12329.5  T
     SCC iter.                  ...        0 min,  0.074 sec
     gradient                   ...        0 min,  0.002 sec
 * total energy  :   -31.5524219 Eh     change       -0.9815657E-04 Eh
   gradient norm :     0.0137619 Eh/α   predicted    -0.1211607E-03 (  23.44%)
   displ. norm   :     0.2299821 α      lambda       -0.3051913E-03
   maximum displ.:     0.1514676 α      in ANC's #4, #8, #9, ...

........................................................................
.............................. CYCLE   18 ..............................
........................................................................

 iter      E             dE          RMSdq      gap      omega  full diag
   1    -32.0725750 -0.320726E+02  0.771E-02    3.60       0.0  T
   2    -32.0725763 -0.125759E-05  0.442E-02    3.60       1.0  T
   3    -32.0725762  0.102880E-06  0.106E-02    3.60       1.8  T
   4    -32.0725765 -0.326547E-06  0.269E-03    3.60       7.3  T
   5    -32.0725765  0.471612E-08  0.137E-03    3.60      14.4  T
   6    -32.0725765 -0.999467E-08  0.524E-04    3.60      37.4  T
   7    -32.0725765 -0.135392E-08  0.136E-04    3.60     144.2  T
   8    -32.0725765 -0.217746E-09  0.409E-05    3.60     479.8  T
   9    -32.0725765 -0.657963E-11  0.221E-05    3.60     888.2  T
  10    -32.0725765 -0.427036E-11  0.979E-06    3.60    2002.2  T
  11    -32.0725765 -0.518696E-12  0.337E-06    3.60    5821.9  T
     SCC iter.                  ...        0 min,  0.074 sec
     gradient                   ...        0 min,  0.002 sec
 * total energy  :   -31.5526093 Eh     change       -0.1873583E-03 Eh
   gradient norm :     0.0128735 Eh/α   predicted    -0.1606667E-03 ( -14.25%)
   displ. norm   :     0.4126321 α      lambda       -0.3258163E-03
   maximum displ.:     0.2916807 α      in ANC's #4, #5, #1, ...

........................................................................
.............................. CYCLE   19 ..............................
........................................................................

 iter      E             dE          RMSdq      gap      omega  full diag
   1    -32.0698808 -0.320699E+02  0.124E-01    3.60       0.0  T
   2    -32.0698838 -0.298507E-05  0.733E-02    3.60       1.0  T
   3    -32.0698831  0.720532E-06  0.111E-02    3.60       1.8  T
   4    -32.0698842 -0.108425E-05  0.414E-03    3.60       4.7  T
   5    -32.0698843 -0.110004E-06  0.152E-03    3.60      12.9  T
   6    -32.0698843 -0.388549E-07  0.770E-04    3.60      25.5  T
   7    -32.0698843 -0.151652E-08  0.238E-04    3.60      82.6  T
   8    -32.0698843 -0.553797E-10  0.571E-05    3.60     343.6  T
   9    -32.0698843 -0.483737E-10  0.213E-05    3.60     919.8  T
  10    -32.0698843 -0.103739E-11  0.591E-06    3.60    3317.6  T
  11    -32.0698843 -0.639488E-12  0.200E-06    3.60    9796.2  T
     SCC iter.                  ...        0 min,  0.074 sec
     gradient                   ...        0 min,  0.002 sec
 * total energy  :   -31.5528953 Eh     change       -0.2860055E-03 Eh
   gradient norm :     0.0130947 Eh/α   predicted    -0.1906459E-03 ( -33.34%)
   displ. norm   :     0.4700283 α      lambda       -0.7717738E-03
   maximum displ.:     0.2981589 α      in ANC's #4, #5, #1, ...

........................................................................
.............................. CYCLE   20 ..............................
........................................................................

 iter      E             dE          RMSdq      gap      omega  full diag
   1    -32.0683192 -0.320683E+02  0.168E-01    3.61       0.0  T
   2    -32.0683227 -0.355214E-05  0.104E-01    3.61       1.0  T
   3    -32.0683200  0.273873E-05  0.181E-02    3.61       1.1  T
   4    -32.0683237 -0.366688E-05  0.351E-03    3.61       5.6  T
   5    -32.0683237 -0.223777E-07  0.189E-03    3.61      10.4  T
   6    -32.0683237 -0.168649E-07  0.957E-04    3.61      20.5  T
   7    -32.0683237 -0.356074E-08  0.236E-04    3.61      83.1  T
   8    -32.0683237 -0.408996E-09  0.820E-05    3.61     239.0  T
   9    -32.0683237 -0.876099E-10  0.411E-05    3.61     477.6  T
  10    -32.0683237 -0.468248E-11  0.122E-05    3.61    1603.0  T
  11    -32.0683237 -0.112976E-11  0.501E-06    3.61    3911.5  T
  12    -32.0683237 -0.234479E-12  0.163E-06    3.61   12019.6  T
     SCC iter.                  ...        0 min,  0.074 sec
     gradient                   ...        0 min,  0.002 sec
 * total energy  :   -31.5532645 Eh     change       -0.3692659E-03 Eh
   gradient norm :     0.0115060 Eh/α   predicted    -0.4711426E-03 (  27.59%)
   displ. norm   :     0.5976571 α      lambda       -0.5436848E-03
   maximum displ.:     0.4164328 α      in ANC's #4, #5, #3, ...
 * RMSD in coord.:     0.7642112 α      energy gain  -0.5683404E-02 Eh

generating ANC from model Hessian ...
Using Lindh-Hessian (1995)
 Shifting diagonal of input Hessian by   9.149514015600001E-003
 Lowest  eigenvalues of input Hessian
    0.000000    0.000000    0.000000    0.000000    0.000000    0.000000
    0.010000    0.010140    0.010682    0.010775    0.011127    0.012654
    0.014825    0.016669    0.017746    0.018331    0.021349    0.023920
 Highest eigenvalues
    1.353367    1.542942    1.566901    1.873847    1.975091    1.992852
 

........................................................................
.............................. CYCLE   21 ..............................
........................................................................

 iter      E             dE          RMSdq      gap      omega  full diag
   1    -32.0579915 -0.320580E+02  0.182E-01    3.62       0.0  T
   2    -32.0580145 -0.230187E-04  0.104E-01    3.62       1.0  T
   3    -32.0580133  0.129006E-05  0.344E-02    3.62       1.0  T
   4    -32.0580169 -0.363548E-05  0.937E-03    3.62       2.1  T
   5    -32.0580172 -0.291071E-06  0.498E-03    3.62       3.9  T
   6    -32.0580176 -0.399952E-06  0.237E-03    3.62       8.3  T
   7    -32.0580176 -0.153706E-07  0.888E-04    3.62      22.1  T
   8    -32.0580176 -0.399119E-09  0.167E-04    3.62     117.4  T
   9    -32.0580176 -0.249237E-09  0.798E-05    3.62     245.8  T
  10    -32.0580176 -0.458513E-10  0.230E-05    3.62     851.2  T
  11    -32.0580176 -0.266454E-11  0.903E-06    3.62    2171.6  T
  12    -32.0580176 -0.987654E-12  0.233E-06    3.62    8410.4  T
     SCC iter.                  ...        0 min,  0.075 sec
     gradient                   ...        0 min,  0.002 sec
 * total energy  :   -31.5531927 Eh     change        0.7181427E-04 Eh
   gradient norm :     0.0213625 Eh/α   predicted     0.0000000E+00 (-100.00%)
   displ. norm   :     0.1166099 α      lambda       -0.1287908E-02
   maximum displ.:     0.0694302 α      in ANC's #4, #47, #6, ...

........................................................................
.............................. CYCLE   22 ..............................
........................................................................

 iter      E             dE          RMSdq      gap      omega  full diag
   1    -32.0712028 -0.320712E+02  0.800E-02    3.63       0.0  T
   2    -32.0712123 -0.954510E-05  0.431E-02    3.62       1.0  T
   3    -32.0712126 -0.312621E-06  0.177E-02    3.62       1.1  T
   4    -32.0712131 -0.460458E-06  0.406E-03    3.62       4.8  T
   5    -32.0712131 -0.346625E-07  0.202E-03    3.62       9.7  T
   6    -32.0712131 -0.116278E-07  0.712E-04    3.62      27.6  T
   7    -32.0712131 -0.995740E-09  0.345E-04    3.62      56.9  T
   8    -32.0712131 -0.118717E-08  0.825E-05    3.62     237.8  T
   9    -32.0712131 -0.200657E-10  0.406E-05    3.62     483.0  T
  10    -32.0712131 -0.602540E-11  0.130E-05    3.62    1503.5  T
  11    -32.0712131 -0.568434E-12  0.306E-06    3.62    6413.6  T
  12    -32.0712131  0.710543E-14  0.143E-06    3.62   13685.8  T
     SCC iter.                  ...        0 min,  0.074 sec
     gradient                   ...        0 min,  0.002 sec
 * total energy  :   -31.5539818 Eh     change       -0.7890304E-03 Eh
   gradient norm :     0.0059278 Eh/α   predicted    -0.6527129E-03 ( -17.28%)
   displ. norm   :     0.1272795 α      lambda       -0.2287963E-03
   maximum displ.:     0.0992501 α      in ANC's #4, #6, #3, ...

........................................................................
.............................. CYCLE   23 ..............................
........................................................................

 iter      E             dE          RMSdq      gap      omega  full diag
   1    -32.0754966 -0.320755E+02  0.384E-02    3.63       0.0  T
   2    -32.0754974 -0.823722E-06  0.221E-02    3.63       1.0  T
   3    -32.0754975 -0.816121E-08  0.430E-03    3.63       4.6  T
   4    -32.0754975 -0.572740E-07  0.129E-03    3.63      15.2  T
   5    -32.0754975 -0.976300E-09  0.772E-04    3.63      25.4  T
   6    -32.0754975 -0.501621E-08  0.263E-04    3.63      74.5  T
   7    -32.0754975 -0.248534E-09  0.105E-04    3.63     186.3  T
   8    -32.0754975 -0.126896E-09  0.285E-05    3.63     688.9  T
   9    -32.0754975 -0.364508E-11  0.107E-05    3.63    1839.9  T
  10    -32.0754975 -0.319744E-12  0.421E-06    3.63    4657.6  T
  11    -32.0754975 -0.106581E-12  0.122E-06    3.63   16100.6  T
     SCC iter.                  ...        0 min,  0.074 sec
     gradient                   ...        0 min,  0.002 sec
 * total energy  :   -31.5541499 Eh     change       -0.1681180E-03 Eh
   gradient norm :     0.0017732 Eh/α   predicted    -0.1169163E-03 ( -30.46%)
   displ. norm   :     0.3003522 α      lambda       -0.2011549E-03
   maximum displ.:     0.2296472 α      in ANC's #4, #3, #6, ...

........................................................................
.............................. CYCLE   24 ..............................
........................................................................

 iter      E             dE          RMSdq      gap      omega  full diag
   1    -32.0774107 -0.320774E+02  0.678E-02    3.64       0.0  T
   2    -32.0774118 -0.107772E-05  0.404E-02    3.64       1.0  T
   3    -32.0774117  0.929171E-07  0.788E-03    3.64       2.5  T
   4    -32.0774120 -0.240850E-06  0.214E-03    3.64       9.2  T
   5    -32.0774120 -0.135396E-08  0.124E-03    3.64      15.8  T
   6    -32.0774120 -0.114548E-07  0.615E-04    3.64      31.9  T
   7    -32.0774120 -0.844587E-09  0.121E-04    3.64     161.8  T
   8    -32.0774120 -0.171255E-09  0.302E-05    3.64     650.3  T
   9    -32.0774120 -0.444800E-11  0.146E-05    3.64    1339.9  T
  10    -32.0774120 -0.952127E-12  0.460E-06    3.64    4259.6  T
  11    -32.0774120 -0.852651E-13  0.186E-06    3.64   10547.4  T
     SCC iter.                  ...        0 min,  0.074 sec
     gradient                   ...        0 min,  0.002 sec
 * total energy  :   -31.5544127 Eh     change       -0.2628322E-03 Eh
   gradient norm :     0.0051374 Eh/α   predicted    -0.1046105E-03 ( -60.20%)
   displ. norm   :     0.2769834 α      lambda       -0.2655005E-03
   maximum displ.:     0.1998987 α      in ANC's #4, #3, #6, ...

........................................................................
.............................. CYCLE   25 ..............................
........................................................................

 iter      E             dE          RMSdq      gap      omega  full diag
   1    -32.0756677 -0.320757E+02  0.604E-02    3.65       0.0  T
   2    -32.0756690 -0.125072E-05  0.359E-02    3.65       1.0  T
   3    -32.0756689  0.113103E-06  0.885E-03    3.65       2.2  T
   4    -32.0756692 -0.282655E-06  0.216E-03    3.65       9.1  T
   5    -32.0756692 -0.644610E-08  0.113E-03    3.65      17.4  T
   6    -32.0756692 -0.126425E-07  0.582E-04    3.65      33.7  T
   7    -32.0756692 -0.134893E-08  0.166E-04    3.65     117.8  T
   8    -32.0756692 -0.123279E-10  0.341E-05    3.65     574.9  T
   9    -32.0756692 -0.753886E-11  0.149E-05    3.65    1312.1  T
  10    -32.0756692 -0.183320E-11  0.515E-06    3.65    3811.6  T
  11    -32.0756692 -0.426326E-13  0.213E-06    3.65    9186.9  T
     SCC iter.                  ...        0 min,  0.073 sec
     gradient                   ...        0 min,  0.002 sec
 * total energy  :   -31.5546507 Eh     change       -0.2380345E-03 Eh
   gradient norm :     0.0053660 Eh/α   predicted    -0.1429385E-03 ( -39.95%)
   displ. norm   :     0.3916160 α      lambda       -0.3494354E-03
   maximum displ.:     0.2818471 α      in ANC's #4, #3, #6, ...

........................................................................
.............................. CYCLE   26 ..............................
........................................................................

 iter      E             dE          RMSdq      gap      omega  full diag
   1    -32.0720872 -0.320721E+02  0.832E-02    3.65       0.0  T
   2    -32.0720902 -0.299415E-05  0.493E-02    3.65       1.0  T
   3    -32.0720899  0.310791E-06  0.135E-02    3.65       1.5  T
   4    -32.0720906 -0.680424E-06  0.321E-03    3.65       6.1  T
   5    -32.0720906 -0.260859E-07  0.176E-03    3.65      11.1  T
   6    -32.0720907 -0.426768E-07  0.849E-04    3.65      23.1  T
   7    -32.0720907 -0.236106E-08  0.268E-04    3.65      73.1  T
   8    -32.0720907 -0.276188E-10  0.561E-05    3.65     349.9  T
   9    -32.0720907 -0.305747E-10  0.272E-05    3.65     719.8  T
  10    -32.0720907 -0.228795E-11  0.698E-06    3.65    2810.0  T
  11    -32.0720907 -0.561329E-12  0.287E-06    3.65    6838.0  T
     SCC iter.                  ...        0 min,  0.073 sec
     gradient                   ...        0 min,  0.002 sec
 * total energy  :   -31.5548938 Eh     change       -0.2430599E-03 Eh
   gradient norm :     0.0085859 Eh/α   predicted    -0.2015226E-03 ( -17.09%)
   displ. norm   :     0.2440230 α      lambda       -0.2428905E-03
   maximum displ.:     0.1864915 α      in ANC's #4, #3, #5, ...

........................................................................
.............................. CYCLE   27 ..............................
........................................................................

 iter      E             dE          RMSdq      gap      omega  full diag
   1    -32.0709356 -0.320709E+02  0.531E-02    3.65       0.0  T
   2    -32.0709364 -0.762001E-06  0.311E-02    3.65       1.0  T
   3    -32.0709362  0.234828E-06  0.558E-03    3.65       3.5  T
   4    -32.0709364 -0.265915E-06  0.262E-03    3.65       7.5  T
   5    -32.0709365 -0.901212E-07  0.733E-04    3.65      26.8  T
   6    -32.0709365 -0.808215E-08  0.280E-04    3.65      70.1  T
   7    -32.0709365 -0.162672E-09  0.111E-04    3.65     176.7  T
   8    -32.0709365 -0.966338E-12  0.370E-05    3.65     529.5  T
   9    -32.0709365 -0.193339E-10  0.156E-05    3.65    1255.8  T
  10    -32.0709365 -0.120792E-11  0.309E-06    3.65    6337.9  T
  11    -32.0709365 -0.149214E-12  0.114E-06    3.65   17253.7  T
     SCC iter.                  ...        0 min,  0.073 sec
     gradient                   ...        0 min,  0.002 sec
 * total energy  :   -31.5550814 Eh     change       -0.1876163E-03 Eh
   gradient norm :     0.0086683 Eh/α   predicted    -0.1286805E-03 ( -31.41%)
   displ. norm   :     0.2414399 α      lambda       -0.3868137E-03
   maximum displ.:     0.1916433 α      in ANC's #4, #3, #2, ...

........................................................................
.............................. CYCLE   28 ..............................
........................................................................

 iter      E             dE          RMSdq      gap      omega  full diag
   1    -32.0732018 -0.320732E+02  0.718E-02    3.65       0.0  T
   2    -32.0732036 -0.177725E-05  0.401E-02    3.65       1.0  T
   3    -32.0732032  0.366474E-06  0.108E-02    3.65       1.8  T
   4    -32.0732038 -0.582750E-06  0.284E-03    3.65       6.9  T
   5    -32.0732038 -0.284161E-07  0.153E-03    3.65      12.8  T
   6    -32.0732038 -0.197172E-07  0.523E-04    3.65      37.5  T
   7    -32.0732038 -0.914937E-09  0.151E-04    3.65     129.8  T
   8    -32.0732038 -0.144325E-09  0.563E-05    3.65     348.5  T
   9    -32.0732038 -0.181331E-10  0.275E-05    3.65     714.0  T
  10    -32.0732038 -0.375167E-11  0.648E-06    3.65    3028.6  T
  11    -32.0732038 -0.291323E-12  0.217E-06    3.65    9023.1  T
     SCC iter.                  ...        0 min,  0.073 sec
     gradient                   ...        0 min,  0.002 sec
 * total energy  :   -31.5553177 Eh     change       -0.2362293E-03 Eh
   gradient norm :     0.0054403 Eh/α   predicted    -0.2046911E-03 ( -13.35%)
   displ. norm   :     0.4633821 α      lambda       -0.3019983E-03
   maximum displ.:     0.3607101 α      in ANC's #4, #3, #2, ...

........................................................................
.............................. CYCLE   29 ..............................
........................................................................

 iter      E             dE          RMSdq      gap      omega  full diag
   1    -32.0697140 -0.320697E+02  0.108E-01    3.66       0.0  T
   2    -32.0697203 -0.625522E-05  0.652E-02    3.66       1.0  T
   3    -32.0697196  0.655956E-06  0.182E-02    3.66       1.1  T
   4    -32.0697210 -0.136987E-05  0.456E-03    3.66       4.3  T
   5    -32.0697210 -0.144378E-07  0.313E-03    3.66       6.3  T
   6    -32.0697211 -0.128261E-06  0.140E-03    3.66      14.0  T
   7    -32.0697212 -0.499639E-08  0.422E-04    3.66      46.5  T
   8    -32.0697212 -0.106077E-09  0.707E-05    3.66     277.3  T
   9    -32.0697212 -0.692282E-10  0.367E-05    3.66     534.2  T
  10    -32.0697212 -0.854072E-11  0.132E-05    3.66    1488.1  T
  11    -32.0697212 -0.497380E-12  0.462E-06    3.66    4241.6  T
  12    -32.0697212 -0.710543E-13  0.103E-06    3.66   19022.8  T
     SCC iter.                  ...        0 min,  0.074 sec
     gradient                   ...        0 min,  0.002 sec
 * total energy  :   -31.5554306 Eh     change       -0.1129947E-03 Eh
   gradient norm :     0.0116340 Eh/α   predicted    -0.1834689E-03 (  62.37%)
   displ. norm   :     0.0590295 α      lambda       -0.2294992E-03
   maximum displ.:     0.0307984 α      in ANC's #3, #1, #5, ...

........................................................................
.............................. CYCLE   30 ..............................
........................................................................

 iter      E             dE          RMSdq      gap      omega  full diag
   1    -32.0736659 -0.320737E+02  0.306E-02    3.66       0.0  T
   2    -32.0736671 -0.120521E-05  0.166E-02    3.66       1.2  T
   3    -32.0736672 -0.514742E-07  0.702E-03    3.66       2.8  T
   4    -32.0736672 -0.610906E-07  0.164E-03    3.66      12.0  T
   5    -32.0736672 -0.217054E-08  0.901E-04    3.66      21.8  T
   6    -32.0736672 -0.247893E-08  0.347E-04    3.66      56.4  T
   7    -32.0736672 -0.900194E-09  0.122E-04    3.66     160.5  T
   8    -32.0736672 -0.133966E-09  0.352E-05    3.66     557.3  T
   9    -32.0736672 -0.240874E-11  0.207E-05    3.66     948.1  T
  10    -32.0736672 -0.213163E-11  0.695E-06    3.66    2823.8  T
  11    -32.0736672 -0.184741E-12  0.185E-06    3.66   10573.2  T
     SCC iter.                  ...        0 min,  0.074 sec
     gradient                   ...        0 min,  0.002 sec
 * total energy  :   -31.5555810 Eh     change       -0.1503355E-03 Eh
   gradient norm :     0.0055157 Eh/α   predicted    -0.1151499E-03 ( -23.40%)
   displ. norm   :     0.2634321 α      lambda       -0.1829419E-03
   maximum displ.:     0.2013103 α      in ANC's #4, #2, #3, ...

........................................................................
.............................. CYCLE   31 ..............................
........................................................................

 iter      E             dE          RMSdq      gap      omega  full diag
   1    -32.0756620 -0.320757E+02  0.608E-02    3.66       0.0  T
   2    -32.0756626 -0.548189E-06  0.358E-02    3.66       1.0  T
   3    -32.0756623  0.302430E-06  0.515E-03    3.66       3.8  T
   4    -32.0756626 -0.323529E-06  0.257E-03    3.66       7.6  T
   5    -32.0756627 -0.110000E-06  0.788E-04    3.66      24.9  T
   6    -32.0756627 -0.502794E-08  0.443E-04    3.66      44.3  T
   7    -32.0756627 -0.371884E-09  0.879E-05    3.66     223.1  T
   8    -32.0756627 -0.125830E-09  0.334E-05    3.66     586.8  T
   9    -32.0756627 -0.116884E-10  0.109E-05    3.66    1796.0  T
  10    -32.0756627 -0.873968E-12  0.312E-06    3.66    6286.4  T
  11    -32.0756627 -0.355271E-13  0.145E-06    3.66   13538.8  T
     SCC iter.                  ...        0 min,  0.074 sec
     gradient                   ...        0 min,  0.002 sec
 * total energy  :   -31.5557240 Eh     change       -0.1430103E-03 Eh
   gradient norm :     0.0038404 Eh/α   predicted    -0.9782006E-04 ( -31.60%)
   displ. norm   :     0.4246107 α      lambda       -0.1995418E-03
   maximum displ.:     0.3208732 α      in ANC's #4, #2, #3, ...

........................................................................
.............................. CYCLE   32 ..............................
........................................................................

 iter      E             dE          RMSdq      gap      omega  full diag
   1    -32.0746648 -0.320747E+02  0.985E-02    3.66       0.0  T
   2    -32.0746668 -0.194619E-05  0.581E-02    3.66       1.0  T
   3    -32.0746663  0.481251E-06  0.111E-02    3.66       1.8  T
   4    -32.0746671 -0.757496E-06  0.340E-03    3.66       5.8  T
   5    -32.0746671 -0.209790E-07  0.216E-03    3.66       9.1  T
   6    -32.0746672 -0.741445E-07  0.941E-04    3.66      20.8  T
   7    -32.0746672 -0.161295E-08  0.189E-04    3.66     103.5  T
   8    -32.0746672 -0.439755E-10  0.638E-05    3.66     307.5  T
   9    -32.0746672 -0.542144E-10  0.292E-05    3.66     671.3  T
  10    -32.0746672 -0.421352E-11  0.494E-06    3.66    3972.0  T
  11    -32.0746672 -0.781597E-13  0.205E-06    3.66    9561.2  T
     SCC iter.                  ...        0 min,  0.074 sec
     gradient                   ...        0 min,  0.002 sec
 * total energy  :   -31.5558470 Eh     change       -0.1229829E-03 Eh
   gradient norm :     0.0053367 Eh/α   predicted    -0.1177600E-03 (  -4.25%)
   displ. norm   :     0.1782609 α      lambda       -0.1249190E-03
   maximum displ.:     0.1052724 α      in ANC's #2, #4, #1, ...

........................................................................
.............................. CYCLE   33 ..............................
........................................................................

 iter      E             dE          RMSdq      gap      omega  full diag
   1    -32.0765633 -0.320766E+02  0.521E-02    3.66       0.0  T
   2    -32.0765642 -0.881275E-06  0.294E-02    3.66       1.0  T
   3    -32.0765640  0.109744E-06  0.864E-03    3.66       2.3  T
   4    -32.0765643 -0.243066E-06  0.133E-03    3.66      14.8  T
   5    -32.0765643 -0.190341E-08  0.644E-04    3.66      30.5  T
   6    -32.0765643 -0.101147E-08  0.310E-04    3.66      63.3  T
   7    -32.0765643 -0.787828E-09  0.105E-04    3.66     187.0  T
   8    -32.0765643 -0.417515E-10  0.241E-05    3.66     812.6  T
   9    -32.0765643 -0.741807E-11  0.133E-05    3.66    1480.1  T
  10    -32.0765643 -0.110845E-11  0.565E-06    3.66    3468.9  T
  11    -32.0765643 -0.149214E-12  0.230E-06    3.66    8529.7  T
     SCC iter.                  ...        0 min,  0.073 sec
     gradient                   ...        0 min,  0.002 sec
 * total energy  :   -31.5559203 Eh     change       -0.7333887E-04 Eh
   gradient norm :     0.0037014 Eh/α   predicted    -0.6444854E-04 ( -12.12%)
   displ. norm   :     0.2519793 α      lambda       -0.8087533E-04
   maximum displ.:     0.1694934 α      in ANC's #4, #2, #1, ...

........................................................................
.............................. CYCLE   34 ..............................
........................................................................

 iter      E             dE          RMSdq      gap      omega  full diag
   1    -32.0759197 -0.320759E+02  0.633E-02    3.66       0.0  T
   2    -32.0759203 -0.691503E-06  0.370E-02    3.66       1.0  T
   3    -32.0759201  0.239831E-06  0.595E-03    3.66       3.3  T
   4    -32.0759205 -0.341855E-06  0.211E-03    3.66       9.3  T
   5    -32.0759205 -0.423889E-07  0.985E-04    3.66      19.9  T
   6    -32.0759205 -0.138563E-07  0.521E-04    3.66      37.6  T
   7    -32.0759205 -0.509253E-09  0.943E-05    3.66     208.1  T
   8    -32.0759205 -0.507328E-10  0.340E-05    3.66     576.2  T
   9    -32.0759205 -0.791545E-11  0.184E-05    3.66    1068.5  T
  10    -32.0759205 -0.326139E-11  0.395E-06    3.66    4970.2  T
  11    -32.0759205 -0.170530E-12  0.203E-06    3.66    9662.0  T
     SCC iter.                  ...        0 min,  0.074 sec
     gradient                   ...        0 min,  0.002 sec
 * total energy  :   -31.5559529 Eh     change       -0.3254739E-04 Eh
   gradient norm :     0.0036454 Eh/α   predicted    -0.4300969E-04 (  32.14%)
   displ. norm   :     0.1067684 α      lambda       -0.4546270E-04
   maximum displ.:     0.0635485 α      in ANC's #4, #2, #1, ...

........................................................................
.............................. CYCLE   35 ..............................
........................................................................

 iter      E             dE          RMSdq      gap      omega  full diag
   1    -32.0758706 -0.320759E+02  0.312E-02    3.66       0.0  T
   2    -32.0758709 -0.321321E-06  0.176E-02    3.66       1.1  T
   3    -32.0758708  0.129951E-06  0.452E-03    3.66       4.3  T
   4    -32.0758709 -0.187934E-06  0.104E-03    3.66      18.9  T
   5    -32.0758710 -0.136197E-07  0.550E-04    3.66      35.7  T
   6    -32.0758710 -0.732307E-09  0.199E-04    3.66      98.6  T
   7    -32.0758710 -0.112195E-09  0.614E-05    3.66     319.2  T
   8    -32.0758710 -0.253095E-10  0.276E-05    3.66     711.8  T
   9    -32.0758710 -0.602540E-11  0.111E-05    3.66    1761.9  T
  10    -32.0758710 -0.262901E-12  0.286E-06    3.66    6863.9  T
  11    -32.0758710 -0.120792E-12  0.920E-07    3.66   21316.8  T
     SCC iter.                  ...        0 min,  0.074 sec
     gradient                   ...        0 min,  0.002 sec
 * total energy  :   -31.5559779 Eh     change       -0.2503792E-04 Eh
   gradient norm :     0.0027806 Eh/α   predicted    -0.2299385E-04 (  -8.16%)
   displ. norm   :     0.0508932 α      lambda       -0.3476003E-04
   maximum displ.:     0.0342829 α      in ANC's #4, #3, #1, ...

........................................................................
.............................. CYCLE   36 ..............................
........................................................................

 iter      E             dE          RMSdq      gap      omega  full diag
   1    -32.0781704 -0.320782E+02  0.203E-02    3.66       0.0  T
   2    -32.0781711 -0.651551E-06  0.105E-02    3.66       1.9  T
   3    -32.0781711 -0.128705E-07  0.536E-03    3.66       3.7  T
   4    -32.0781711 -0.436652E-07  0.163E-03    3.66      12.0  T
   5    -32.0781711 -0.532890E-08  0.959E-04    3.66      20.5  T
   6    -32.0781711 -0.942856E-08  0.407E-04    3.66      48.2  T
   7    -32.0781711 -0.623153E-09  0.107E-04    3.66     182.5  T
   8    -32.0781711 -0.252811E-10  0.284E-05    3.66     689.6  T
   9    -32.0781711 -0.114397E-11  0.145E-05    3.66    1353.4  T
  10    -32.0781711 -0.888178E-12  0.336E-06    3.66    5830.7  T
  11    -32.0781711 -0.120792E-12  0.995E-07    3.66   19713.3  T
     SCC iter.                  ...        0 min,  0.074 sec
     gradient                   ...        0 min,  0.002 sec
 * total energy  :   -31.5559798 Eh     change       -0.1853938E-05 Eh
   gradient norm :     0.0029293 Eh/α   predicted    -0.1742737E-04 ( 840.02%)
   displ. norm   :     0.1082645 α      lambda       -0.2846189E-04
   maximum displ.:     0.0756801 α      in ANC's #4, #2, #3, ...

........................................................................
.............................. CYCLE   37 ..............................
........................................................................

 iter      E             dE          RMSdq      gap      omega  full diag
   1    -32.0768698 -0.320769E+02  0.271E-02    3.66       0.0  T
   2    -32.0768701 -0.292717E-06  0.158E-02    3.66       1.2  T
   3    -32.0768701  0.443156E-07  0.456E-03    3.66       4.3  T
   4    -32.0768701 -0.837057E-07  0.105E-03    3.66      18.7  T
   5    -32.0768701  0.641549E-09  0.724E-04    3.66      27.1  T
   6    -32.0768702 -0.711235E-08  0.312E-04    3.66      62.8  T
   7    -32.0768702 -0.254218E-09  0.830E-05    3.66     236.3  T
   8    -32.0768702 -0.222400E-11  0.201E-05    3.66     975.6  T
   9    -32.0768702 -0.332534E-11  0.107E-05    3.66    1829.2  T
  10    -32.0768702 -0.710543E-12  0.178E-06    3.66   11046.9  T
  11    -32.0768702 -0.284217E-13  0.741E-07    3.66   26456.1  T
     SCC iter.                  ...        0 min,  0.074 sec
     gradient                   ...        0 min,  0.002 sec
 * total energy  :   -31.5559969 Eh     change       -0.1709701E-04 Eh
   gradient norm :     0.0015234 Eh/α   predicted    -0.1440297E-04 ( -15.76%)
   displ. norm   :     0.0885923 α      lambda       -0.7595195E-05
   maximum displ.:     0.0511407 α      in ANC's #2, #4, #1, ...

........................................................................
.............................. CYCLE   38 ..............................
........................................................................

 iter      E             dE          RMSdq      gap      omega  full diag
   1    -32.0763239 -0.320763E+02  0.226E-02    3.66       0.0  T
   2    -32.0763240 -0.745742E-07  0.132E-02    3.66       1.5  T
   3    -32.0763240  0.309461E-07  0.246E-03    3.66       8.0  T
   4    -32.0763240 -0.457561E-07  0.661E-04    3.66      29.7  T
   5    -32.0763240 -0.413863E-09  0.425E-04    3.66      46.1  T
   6    -32.0763240 -0.286601E-08  0.170E-04    3.66     115.4  T
   7    -32.0763240 -0.509885E-10  0.407E-05    3.66     481.7  T
   8    -32.0763240 -0.767386E-12  0.112E-05    3.66    1747.9  T
   9    -32.0763240 -0.142109E-11  0.532E-06    3.66    3687.9  T
  10    -32.0763240 -0.312639E-12  0.123E-06    3.66   15902.8  T
     SCC iter.                  ...        0 min,  0.073 sec
     gradient                   ...        0 min,  0.002 sec
 * total energy  :   -31.5560036 Eh     change       -0.6720716E-05 Eh
   gradient norm :     0.0013306 Eh/α   predicted    -0.3812014E-05 ( -43.28%)
   displ. norm   :     0.0726057 α      lambda       -0.8911410E-05
   maximum displ.:     0.0439801 α      in ANC's #1, #2, #6, ...

........................................................................
.............................. CYCLE   39 ..............................
........................................................................

 iter      E             dE          RMSdq      gap      omega  full diag
   1    -32.0766193 -0.320766E+02  0.206E-02    3.66       0.0  T
   2    -32.0766193 -0.328574E-07  0.121E-02    3.65       1.6  T
   3    -32.0766193  0.194476E-07  0.156E-03    3.65      12.6  T
   4    -32.0766193 -0.290286E-07  0.444E-04    3.65      44.2  T
   5    -32.0766193 -0.119130E-08  0.213E-04    3.65      91.9  T
   6    -32.0766193 -0.401712E-09  0.864E-05    3.65     226.9  T
   7    -32.0766193 -0.416449E-10  0.175E-05    3.65    1118.7  T
   8    -32.0766193 -0.188294E-11  0.696E-06    3.65    2818.2  T
   9    -32.0766193 -0.866862E-12  0.263E-06    3.65    7449.9  T
     SCC iter.                  ...        0 min,  0.072 sec
     gradient                   ...        0 min,  0.002 sec
 * total energy  :   -31.5560135 Eh     change       -0.9963977E-05 Eh
   gradient norm :     0.0010598 Eh/α   predicted    -0.4471711E-05 ( -55.12%)
   displ. norm   :     0.0759059 α      lambda       -0.9325530E-05
   maximum displ.:     0.0502626 α      in ANC's #1, #2, #5, ...

........................................................................
.............................. CYCLE   40 ..............................
........................................................................

 iter      E             dE          RMSdq      gap      omega  full diag
   1    -32.0770311 -0.320770E+02  0.226E-02    3.65       0.0  T
   2    -32.0770312 -0.414712E-07  0.132E-02    3.65       1.5  T
   3    -32.0770312 -0.396725E-08  0.100E-03    3.65      19.6  T
   4    -32.0770312 -0.533401E-08  0.418E-04    3.65      47.0  T
   5    -32.0770312 -0.493735E-09  0.219E-04    3.65      89.6  T
   6    -32.0770312 -0.238977E-09  0.877E-05    3.65     223.6  T
   7    -32.0770312 -0.405791E-10  0.261E-05    3.65     751.6  T
   8    -32.0770312 -0.502354E-11  0.667E-06    3.65    2940.5  T
   9    -32.0770312 -0.603961E-12  0.338E-06    3.65    5798.8  T
     SCC iter.                  ...        0 min,  0.073 sec
     gradient                   ...        0 min,  0.002 sec
 * total energy  :   -31.5560227 Eh     change       -0.9181662E-05 Eh
   gradient norm :     0.0011756 Eh/α   predicted    -0.4678374E-05 ( -49.05%)
   displ. norm   :     0.0767791 α      lambda        0.8662373E-06
   maximum displ.:     0.0508264 α      in ANC's #1, #2, #5, ...

........................................................................
.............................. CYCLE   41 ..............................
........................................................................

 iter      E             dE          RMSdq      gap      omega  full diag
   1    -32.0773416 -0.320773E+02  0.229E-02    3.65       0.0  T
   2    -32.0773417 -0.381698E-07  0.133E-02    3.65       1.5  T
   3    -32.0773417 -0.376725E-08  0.101E-03    3.65      19.5  T
   4    -32.0773417 -0.563445E-08  0.418E-04    3.65      46.9  T
   5    -32.0773417 -0.500897E-09  0.214E-04    3.65      91.8  T
   6    -32.0773417 -0.243361E-09  0.898E-05    3.65     218.4  T
   7    -32.0773417 -0.397478E-10  0.250E-05    3.65     785.7  T
   8    -32.0773417 -0.506617E-11  0.686E-06    3.65    2858.3  T
   9    -32.0773417 -0.568434E-12  0.334E-06    3.65    5873.8  T
     SCC iter.                  ...        0 min,  0.073 sec
     gradient                   ...        0 min,  0.002 sec
 * total energy  :   -31.5560225 Eh     change        0.1781769E-06 Eh
   gradient norm :     0.0019571 Eh/α   predicted     0.4339198E-06 ( 143.53%)
   displ. norm   :     0.0650748 α      lambda       -0.9202737E-05
   maximum displ.:     0.0346256 α      in ANC's #2, #4, #1, ...

........................................................................
.............................. CYCLE   42 ..............................
........................................................................

 iter      E             dE          RMSdq      gap      omega  full diag
   1    -32.0766607 -0.320767E+02  0.216E-02    3.65       0.0  T
   2    -32.0766608 -0.106886E-06  0.126E-02    3.65       1.6  T
   3    -32.0766608  0.346776E-07  0.222E-03    3.65       8.8  T
   4    -32.0766609 -0.462097E-07  0.738E-04    3.65      26.6  T
   5    -32.0766609 -0.589695E-08  0.385E-04    3.65      50.9  T
   6    -32.0766609 -0.182663E-08  0.137E-04    3.65     142.8  T
   7    -32.0766609 -0.473790E-10  0.472E-05    3.65     415.7  T
   8    -32.0766609 -0.834177E-11  0.132E-05    3.65    1482.2  T
   9    -32.0766609 -0.160583E-11  0.574E-06    3.65    3416.3  T
  10    -32.0766609 -0.120792E-12  0.226E-06    3.65    8661.0  T
     SCC iter.                  ...        0 min,  0.073 sec
     gradient                   ...        0 min,  0.002 sec
 * total energy  :   -31.5560282 Eh     change       -0.5629731E-05 Eh
   gradient norm :     0.0017413 Eh/α   predicted    -0.4611009E-05 ( -18.10%)
   displ. norm   :     0.0174755 α      lambda       -0.4689319E-05
   maximum displ.:     0.0088876 α      in ANC's #7, #2, #5, ...
 * RMSD in coord.:     0.6719401 α      energy gain  -0.2763623E-02 Eh

generating ANC from model Hessian ...
Using Lindh-Hessian (1995)
 Shifting diagonal of input Hessian by   9.136040794862389E-003
 Lowest  eigenvalues of input Hessian
    0.000000    0.000000    0.000000    0.000000    0.000000    0.000000
    0.010000    0.010075    0.010740    0.010919    0.011412    0.012620
    0.015029    0.016984    0.018406    0.018618    0.022116    0.024154
 Highest eigenvalues
    1.363172    1.553714    1.573325    1.881855    1.987841    2.004036
 

........................................................................
.............................. CYCLE   43 ..............................
........................................................................

 iter      E             dE          RMSdq      gap      omega  full diag
   1    -32.0766520 -0.320767E+02  0.709E-03    3.65       0.0  T
   2    -32.0766520 -0.307168E-07  0.421E-03    3.65       4.7  T
   3    -32.0766520  0.105179E-08  0.870E-04    3.65      22.5  T
   4    -32.0766520 -0.331779E-08  0.401E-04    3.65      49.0  T
   5    -32.0766520 -0.891255E-09  0.172E-04    3.65     113.9  T
   6    -32.0766520 -0.304354E-09  0.739E-05    3.65     265.3  T
   7    -32.0766520 -0.185167E-10  0.301E-05    3.65     650.8  T
   8    -32.0766520 -0.654410E-11  0.596E-06    3.65    3293.0  T
   9    -32.0766520 -0.852651E-13  0.259E-06    3.65    7578.4  T
     SCC iter.                  ...        0 min,  0.073 sec
     gradient                   ...        0 min,  0.002 sec
 * total energy  :   -31.5560324 Eh     change       -0.4209814E-05 Eh
   gradient norm :     0.0007897 Eh/α   predicted     0.0000000E+00 (-100.00%)
   displ. norm   :     0.0155809 α      lambda       -0.6850935E-06
   maximum displ.:     0.0082537 α      in ANC's #3, #2, #5, ...

........................................................................
.............................. CYCLE   44 ..............................
........................................................................

 iter      E             dE          RMSdq      gap      omega  full diag
   1    -32.0768197 -0.320768E+02  0.625E-03    3.65       0.0  T
   2    -32.0768198 -0.200152E-07  0.353E-03    3.65       5.6  T
   3    -32.0768198 -0.421004E-09  0.109E-03    3.65      18.0  T
   4    -32.0768198 -0.176337E-08  0.266E-04    3.65      73.8  T
   5    -32.0768198 -0.386429E-09  0.687E-05    3.65     285.4  T
   6    -32.0768198 -0.163922E-10  0.336E-05    3.65     583.5  T
   7    -32.0768198 -0.834177E-11  0.110E-05    3.65    1785.2  T
   8    -32.0768198 -0.135714E-11  0.475E-06    3.65    4128.9  T
   9    -32.0768198 -0.163425E-12  0.162E-06    3.65   12069.6  T
     SCC iter.                  ...        0 min,  0.073 sec
     gradient                   ...        0 min,  0.002 sec
 * total energy  :   -31.5560348 Eh     change       -0.2400453E-05 Eh
   gradient norm :     0.0001974 Eh/α   predicted    -0.1256503E-05 ( -47.66%)
   displ. norm   :     0.0235067 α      lambda       -0.1593859E-05
   maximum displ.:     0.0134795 α      in ANC's #3, #2, #5, ...

........................................................................
.............................. CYCLE   45 ..............................
........................................................................

 iter      E             dE          RMSdq      gap      omega  full diag
   1    -32.0768844 -0.320769E+02  0.671E-03    3.65       0.0  T
   2    -32.0768844 -0.840051E-08  0.384E-03    3.65       5.1  T
   3    -32.0768844  0.136856E-08  0.739E-04    3.65      26.5  T
   4    -32.0768844 -0.274740E-08  0.184E-04    3.65     106.5  T
   5    -32.0768844 -0.104492E-09  0.793E-05    3.65     247.2  T
   6    -32.0768844 -0.635865E-10  0.479E-05    3.65     409.8  T
   7    -32.0768844 -0.161222E-10  0.890E-06    3.65    2204.5  T
   8    -32.0768844 -0.675016E-12  0.306E-06    3.65    6407.7  T
     SCC iter.                  ...        0 min,  0.072 sec
     gradient                   ...        0 min,  0.002 sec
 * total energy  :   -31.5560365 Eh     change       -0.1709760E-05 Eh
   gradient norm :     0.0004090 Eh/α   predicted    -0.7985031E-06 ( -53.30%)
   displ. norm   :     0.0333437 α      lambda       -0.1665503E-05
   maximum displ.:     0.0185389 α      in ANC's #3, #2, #5, ...

........................................................................
.............................. CYCLE   46 ..............................
........................................................................

 iter      E             dE          RMSdq      gap      omega  full diag
   1    -32.0768465 -0.320768E+02  0.861E-03    3.65       0.0  T
   2    -32.0768465 -0.120667E-07  0.494E-03    3.65       4.0  T
   3    -32.0768465  0.781434E-09  0.623E-04    3.65      31.5  T
   4    -32.0768465  0.163233E-09  0.334E-04    3.65      58.8  T
   5    -32.0768465 -0.280517E-08  0.695E-05    3.65     282.3  T
   6    -32.0768465  0.426326E-13  0.335E-05    3.65     585.6  T
   7    -32.0768465 -0.676437E-11  0.100E-05    3.65    1957.7  T
   8    -32.0768465 -0.611067E-12  0.316E-06    3.65    6200.4  T
   9    -32.0768465 -0.135003E-12  0.134E-06    3.65   14661.5  T
     SCC iter.                  ...        0 min,  0.073 sec
     gradient                   ...        0 min,  0.002 sec
 * total energy  :   -31.5560384 Eh     change       -0.1892839E-05 Eh
   gradient norm :     0.0004249 Eh/α   predicted    -0.8333840E-06 ( -55.97%)
   displ. norm   :     0.0401057 α      lambda       -0.1551775E-05
   maximum displ.:     0.0224021 α      in ANC's #3, #2, #1, ...

........................................................................
.............................. CYCLE   47 ..............................
........................................................................

 iter      E             dE          RMSdq      gap      omega  full diag
   1    -32.0768281 -0.320768E+02  0.111E-02    3.65       0.0  T
   2    -32.0768281 -0.136179E-07  0.644E-03    3.65       3.0  T
   3    -32.0768281  0.899490E-09  0.629E-04    3.65      31.2  T
   4    -32.0768281 -0.102641E-08  0.306E-04    3.65      64.1  T
[...]
         :: add. restraining           0.000000000000 Eh    ::
         :: total charge               0.000000000000 e     ::
         :::::::::::::::::::::::::::::::::::::::::::::::::::::

           ------------------------------------------------- 
          |                Numerical Hessian                |
           ------------------------------------------------- 
step length          :   0.00500
SCC accuracy         :   0.30000
Hessian scale factor :   1.00000
frozen atoms in %    :   0.00000    0
RMS gradient         :   0.00003
estimated CPU  time      1.12 min
estimated wall time      0.14 min

writing file <hessian>.

 projected vibrational frequencies (cm⁻¹)
eigval :       -0.00    -0.00    -0.00     0.00     0.00     0.00
eigval :       21.39    52.18    71.74    94.90   142.00   166.76
eigval :      203.53   215.64   224.56   266.08   312.44   329.07
eigval :      363.36   426.05   450.33   586.08   655.58   660.46
eigval :      686.30   701.65   739.07   754.48   777.82   874.79
eigval :      898.94   926.63   932.74   968.78   974.89   997.31
eigval :     1013.15  1016.89  1071.34  1076.67  1083.13  1117.44
eigval :     1121.35  1181.65  1198.88  1220.64  1225.85  1250.24
eigval :     1255.41  1278.30  1315.52  1409.33  1411.23  1423.38
eigval :     1445.60  1450.43  1458.49  1497.35  1498.54  1501.88
eigval :     1502.29  1579.84  1589.70  2929.82  2935.41  2946.96
eigval :     2950.24  3013.43  3014.12  3019.91  3026.71  3029.32
eigval :     3033.61  3063.17  3063.97  3071.85  3077.41  3087.87
           -------------------------------------------------
          |                Property Printout                |
           -------------------------------------------------

    * Orbital Energies and Occupations

         #    Occupation            Energy/Eh            Energy/eV
      -------------------------------------------------------------
         1        2.0000           -0.6578538             -17.9011
       ...           ...                  ...                  ...
        18        2.0000           -0.4774375             -12.9917
        19        2.0000           -0.4745289             -12.9126
        20        2.0000           -0.4629376             -12.5972
        21        2.0000           -0.4620729             -12.5736
        22        2.0000           -0.4534667             -12.3395
        23        2.0000           -0.4448886             -12.1060
        24        2.0000           -0.4376154             -11.9081
        25        2.0000           -0.4232455             -11.5171
        26        2.0000           -0.4184250             -11.3859
        27        2.0000           -0.4045860             -11.0093
        28        2.0000           -0.4044253             -11.0050
        29        2.0000           -0.3968098             -10.7977
        30        2.0000           -0.3669924              -9.9864 (HOMO)
        31                         -0.2332781              -6.3478 (LUMO)
        32                         -0.2229835              -6.0677
        33                         -0.1564153              -4.2563
        34                         -0.1498173              -4.0767
        35                         -0.0930230              -2.5313
        36                          0.0046460               0.1264
        37                          0.0553222               1.5054
        38                          0.0889640               2.4208
        39                          0.0955180               2.5992
        40                          0.1356331               3.6908
        41                          0.1377660               3.7488
       ...                                ...                  ...
        64                          0.7863480              21.3976
      -------------------------------------------------------------
                  HL-Gap            0.1337143 Eh            3.6386 eV
             Fermi-level           -0.3001353 Eh           -8.1671 eV

     #   Z          covCN         q      C6AA      α(0)
     1  15 P        3.046    -0.116   165.503    23.111
     2   6 C        3.748    -0.046    21.472     6.609
     3   1 H        0.925     0.043     2.413     2.429
     4   1 H        0.926     0.038     2.469     2.457
     5   6 C        3.812    -0.098    22.355     6.730
     6   1 H        0.925     0.037     2.493     2.469
     7   1 H        0.925     0.042     2.423     2.434
     8   1 H        0.925     0.033     2.538     2.491
     9   6 C        2.916     0.008    27.844     8.653
    10   6 C        3.016    -0.030    28.736     8.793
    11   6 C        2.960    -0.028    28.705     8.788
    12   6 C        2.918    -0.030    28.741     8.791
    13   6 C        2.919    -0.031    28.780     8.797
    14   6 C        2.920    -0.029    28.731     8.790
    15   1 H        0.925     0.040     2.454     2.450
    16   1 H        0.926     0.032     2.559     2.502
    17   1 H        0.926     0.030     2.580     2.512
    18   1 H        0.926     0.028     2.611     2.527
    19   1 H        0.926     0.029     2.596     2.519
    20   6 C        3.748    -0.045    21.446     6.605
    21   1 H        0.925     0.042     2.425     2.435
    22   1 H        0.926     0.039     2.464     2.455
    23   6 C        3.820    -0.096    22.314     6.722
    24   1 H        0.925     0.035     2.510     2.477
    25   1 H        0.925     0.041     2.435     2.440
    26   1 H        0.925     0.032     2.556     2.500

 Mol. C6AA /au·bohr⁶  :       7598.606212
 Mol. C8AA /au·bohr⁸  :     202572.402805
 Mol. α(0) /au        :        139.488532


Wiberg/Mayer (AO) data.
largest (>0.10) Wiberg bond orders for each atom

 ---------------------------------------------------------------------------
     #   Z sym  total        # sym  WBO       # sym  WBO       # sym  WBO
 ---------------------------------------------------------------------------
     1  15 P    3.345 --    20 C    1.027     2 C    1.022     9 C    1.006
     2   6 C    3.995 --     1 P    1.022     5 C    1.016     4 H    0.959
                             3 H    0.951
     3   1 H    0.998 --     2 C    0.951
     4   1 H    0.998 --     2 C    0.959
     5   6 C    3.996 --     2 C    1.016     6 H    0.985     7 H    0.985
                             8 H    0.984
     6   1 H    0.999 --     5 C    0.985
     7   1 H    0.998 --     5 C    0.985
     8   1 H    0.998 --     5 C    0.984
     9   6 C    3.983 --    10 C    1.408    11 C    1.400     1 P    1.006
                            14 C    0.108
    10   6 C    3.991 --    12 C    1.443     9 C    1.408    15 H    0.964
                            13 C    0.108
    11   6 C    3.992 --    13 C    1.450     9 C    1.400    16 H    0.961
                            12 C    0.111
    12   6 C    3.992 --    10 C    1.443    14 C    1.441    17 H    0.970
                            11 C    0.111
    13   6 C    3.993 --    11 C    1.450    14 C    1.432    18 H    0.970
                            10 C    0.108
    14   6 C    3.989 --    12 C    1.441    13 C    1.432    19 H    0.971
                             9 C    0.108
    15   1 H    0.998 --    10 C    0.964
    16   1 H    0.999 --    11 C    0.961
    17   1 H    0.999 --    12 C    0.970
    18   1 H    0.999 --    13 C    0.970
    19   1 H    0.998 --    14 C    0.971
    20   6 C    3.993 --     1 P    1.027    23 C    1.016    22 H    0.958
                            21 H    0.950
    21   1 H    0.998 --    20 C    0.950
    22   1 H    0.998 --    20 C    0.958
    23   6 C    3.997 --    20 C    1.016    26 H    0.985    25 H    0.984
                            24 H    0.984
    24   1 H    0.999 --    23 C    0.984
    25   1 H    0.998 --    23 C    0.984
    26   1 H    0.999 --    23 C    0.985
 ---------------------------------------------------------------------------

Topologies differ in total number of bonds
Writing topology from bond orders to xtbtopo.mol

molecular dipole:
                 x           y           z       tot (Debye)
 q only:        0.121      -0.223      -0.027
   full:        0.427      -0.478       0.067       1.638
molecular quadrupole (traceless):
                xx          xy          yy          xz          yz          zz
 q only:        0.406      -1.030       0.268      -1.081       2.770      -0.674
  q+dip:        3.695      -4.577       0.686      -1.198       7.156      -4.382
   full:        3.101      -2.667      -0.101      -2.760       5.986      -3.000

           -------------------------------------------------
          |                Geometry Summary                 |
           -------------------------------------------------

      molecular mass/u    :      166.2002322
   center of mass at/Å    :        3.0248980      -0.0483521      -2.6217380
  moments of inertia/u·Å² :        0.3319941E+03   0.8216339E+03   0.9275903E+03
rotational constants/cm⁻¹ :        0.5077691E-01   0.2051721E-01   0.1817358E-01

 * 23 selected distances

     #   Z          #   Z                                           value/Å
     2   6 C        3   1 H                                       1.0933657
     2   6 C        4   1 H                                       1.0940782
     2   6 C        5   6 C                                       1.5226927 (max)
     5   6 C        6   1 H                                       1.0879502
     5   6 C        7   1 H                                       1.0882046
     5   6 C        8   1 H                                       1.0889023
     9   6 C       10   6 C                                       1.3904730
     9   6 C       11   6 C                                       1.3902208
    10   6 C       12   6 C                                       1.3833564
    11   6 C       13   6 C                                       1.3826675
    12   6 C       14   6 C                                       1.3841712
    13   6 C       14   6 C                                       1.3853293
    10   6 C       15   1 H                                       1.0813446
    11   6 C       16   1 H                                       1.0807610
    12   6 C       17   1 H                                       1.0805046
    13   6 C       18   1 H                                       1.0809803
    14   6 C       19   1 H                                       1.0803104 (min)
    20   6 C       21   1 H                                       1.0933149
    20   6 C       22   1 H                                       1.0937104
    20   6 C       23   6 C                                       1.5224163
    23   6 C       24   1 H                                       1.0889285
    23   6 C       25   1 H                                       1.0883794
    23   6 C       26   1 H                                       1.0888993

 * 2 distinct bonds (by element types)

   Z      Z             #   av. dist./Å        max./Å        min./Å
   1 H    6 C          15     1.0873090     1.0940782     1.0803104
   6 C    6 C           8     1.4201659     1.5226927     1.3826675

           -------------------------------------------------
          |               Frequency Printout                |
           -------------------------------------------------
 projected vibrational frequencies (cm⁻¹)
eigval :       -0.00    -0.00    -0.00     0.00     0.00     0.00
eigval :       21.39    52.18    71.74    94.90   142.00   166.76
eigval :      203.53   215.64   224.56   266.08   312.44   329.07
eigval :      363.36   426.05   450.33   586.08   655.58   660.46
eigval :      686.30   701.65   739.07   754.48   777.82   874.79
eigval :      898.94   926.63   932.74   968.78   974.89   997.31
eigval :     1013.15  1016.89  1071.34  1076.67  1083.13  1117.44
eigval :     1121.35  1181.65  1198.88  1220.64  1225.85  1250.24
eigval :     1255.41  1278.30  1315.52  1409.33  1411.23  1423.38
eigval :     1445.60  1450.43  1458.49  1497.35  1498.54  1501.88
eigval :     1502.29  1579.84  1589.70  2929.82  2935.41  2946.96
eigval :     2950.24  3013.43  3014.12  3019.91  3026.71  3029.32
eigval :     3033.61  3063.17  3063.97  3071.85  3077.41  3087.87
 reduced masses (amu)
   1: 11.83   2: 13.41   3: 14.54   4: 11.62   5: 13.64   6: 11.78   7: 10.03   8:  9.88
   9:  9.01  10:  9.38  11:  8.24  12:  6.46  13:  7.70  14:  3.88  15:  8.55  16:  9.80
  17: 13.36  18: 12.90  19:  8.83  20: 20.74  21: 10.49  22: 11.18  23: 11.86  24: 11.70
  25: 14.16  26: 15.24  27:  4.21  28:  4.10  29:  5.04  30:  3.30  31:  3.54  32:  4.19
  33:  3.01  34:  9.81  35:  3.65  36:  3.20  37:  3.67  38:  4.26  39:  9.61  40:  9.30
  41:  7.88  42:  7.45  43:  5.57  44:  1.33  45:  1.94  46:  3.69  47:  3.34  48:  4.35
  49:  4.27  50:  3.39  51: 11.95  52:  2.94  53:  2.95  54:  8.60  55:  2.45  56:  2.31
  57:  7.65  58:  1.52  59:  1.54  60:  1.55  61:  1.55  62: 11.45  63: 11.46  64:  1.91
  65:  1.93  66:  1.53  67:  1.56  68:  1.89  69:  1.86  70:  1.86  71:  1.93  72:  1.41
  73:  1.35  74:  1.76  75:  1.79  76:  1.82  77:  1.87  78:  1.92
 IR intensities (km·mol⁻¹)
   1:  0.02   2:  0.11   3:  0.03   4:  0.07   5:  0.22   6:  0.06   7:  0.20   8:  0.01
   9:  0.06  10:  0.09  11:  0.39  12:  0.23  13:  0.12  14:  0.31  15:  0.16  16:  0.39
  17:  0.06  18:  0.18  19:  0.00  20:  9.16  21:  2.85  22:  0.15  23:  5.23  24:  4.55
  25: 11.00  26: 47.42  27:  7.01  28: 18.78  29: 24.33  30:  0.10  31:  0.05  32:  0.03
  33:  0.00  34:  2.05  35:  1.63  36:  4.60  37:  1.89  38:  2.78  39:  2.39  40:  4.77
  41:  0.22  42:  4.22  43:  3.56  44:  0.02  45:  0.61  46:  1.24  47:  2.28  48:  6.30
  49:  7.95  50:  1.50  51:  0.79  52:  2.30  53:  1.94  54:  1.67  55:  0.60  56:  0.28
  57:  0.37  58:  2.46  59:  2.83  60:  2.09  61:  0.65  62:  0.62  63:  0.48  64:  6.16
  65: 39.08  66:  9.05  67: 27.14  68: 48.14  69: 49.15  70: 32.36  71: 30.60  72: 18.27
  73: 24.19  74: 12.53  75:  4.62  76: 10.77  77: 86.46  78: 62.00
 Raman intensities (Ä⁴*amu⁻¹)
   1:  0.00   2:  0.00   3:  0.00   4:  0.00   5:  0.00   6:  0.00   7:  0.00   8:  0.00
   9:  0.00  10:  0.00  11:  0.00  12:  0.00  13:  0.00  14:  0.00  15:  0.00  16:  0.00
  17:  0.00  18:  0.00  19:  0.00  20:  0.00  21:  0.00  22:  0.00  23:  0.00  24:  0.00
  25:  0.00  26:  0.00  27:  0.00  28:  0.00  29:  0.00  30:  0.00  31:  0.00  32:  0.00
  33:  0.00  34:  0.00  35:  0.00  36:  0.00  37:  0.00  38:  0.00  39:  0.00  40:  0.00
  41:  0.00  42:  0.00  43:  0.00  44:  0.00  45:  0.00  46:  0.00  47:  0.00  48:  0.00
  49:  0.00  50:  0.00  51:  0.00  52:  0.00  53:  0.00  54:  0.00  55:  0.00  56:  0.00
  57:  0.00  58:  0.00  59:  0.00  60:  0.00  61:  0.00  62:  0.00  63:  0.00  64:  0.00
  65:  0.00  66:  0.00  67:  0.00  68:  0.00  69:  0.00  70:  0.00  71:  0.00  72:  0.00
  73:  0.00  74:  0.00  75:  0.00  76:  0.00  77:  0.00  78:  0.00
 output can be read by thermo (or use thermo option).
 writing <g98.out> molden fake output.
 recommended (thermochemical) frequency scaling factor: 1.0
           -------------------------------------------------
          |             Thermodynamic Functions             |
           -------------------------------------------------

Refinement of some symmetry elements was terminated before convergence was reached.
Some symmetry elements may remain unidentified.
Molecule has no symmetry elements
It seems to be the C1 point group
c1  symmetry found (for desy threshold:  0.10E+00) used in thermo

          ...................................................
          :                      SETUP                      :
          :.................................................:
          :  # frequencies                          72      :
          :  # imaginary freq.                       0      :
          :  linear?                             false      :
          :  only rotor calc.                    false      :
          :  symmetry                               c1      :
          :  rotational number                       1      :
          :  scaling factor                  1.0000000      :
          :  rotor cutoff                   50.0000000 cm⁻¹ :
          :  imag. cutoff                  -20.0000000 cm⁻¹ :
          :.................................................:

    mode    ω/cm⁻¹     T·S(HO)/kcal·mol⁻¹    T·S(FR)/kcal·mol⁻¹   T·S(vib)
   ------------------------------------------------------------------------
       1     21.39    -1.93814 (  3.24%)    -1.30772 ( 96.76%)    -1.32816
       2     52.18    -1.41119 ( 54.25%)    -1.04379 ( 45.75%)    -1.24310
       3     71.74    -1.22391 ( 80.91%)    -0.94950 ( 19.09%)    -1.17152
       4     94.90    -1.06038 ( 92.84%)    -0.86666 (  7.16%)    -1.04652
       5    142.00    -0.82789 ( 98.49%)    -0.74728 (  1.51%)    -0.82667
       6    166.76    -0.73692 ( 99.20%)    -0.69967 (  0.80%)    -0.73663
       7    203.53    -0.62639 ( 99.64%)    -0.64065 (  0.36%)    -0.62645
       8    215.64    -0.59492 ( 99.71%)    -0.62353 (  0.29%)    -0.59500
       9    224.56    -0.57305 ( 99.75%)    -0.61153 (  0.25%)    -0.57314
      10    266.08    -0.48345 ( 99.88%)    -0.56127 (  0.12%)    -0.48355
   ------------------------------------------------------------------------

   temp. (K)  partition function   enthalpy   heat capacity  entropy
                                   cal/mol     cal/K/mol   cal/K/mol   J/K/mol
 298.15  VIB  0.316E+05             6238.023     39.241     38.680
         ROT  0.122E+07              888.752      2.981     30.823
         INT  0.385E+11             7126.775     42.221     69.503
         TR   0.207E+28             1481.254      4.968     41.214
         TOT                        8608.0291    47.1896   110.7169   463.2396

       T/K    H(0)-H(T)+PV         H(T)/Eh          T*S/Eh         G(T)/Eh
   ------------------------------------------------------------------------
    298.15    0.137178E-01    0.232271E+00    0.526052E-01    0.179666E+00
   ------------------------------------------------------------------------

         :::::::::::::::::::::::::::::::::::::::::::::::::::::
         ::                  THERMODYNAMIC                  ::
         :::::::::::::::::::::::::::::::::::::::::::::::::::::
         :: total free energy         -31.376444066062 Eh   ::
         ::.................................................::
         :: total energy              -31.556110044953 Eh   ::
         :: zero point energy           0.218553389062 Eh   ::
         :: G(RRHO) w/o ZPVE           -0.038887410171 Eh   ::
         :: G(RRHO) contrib.            0.179665978890 Eh   ::
         :::::::::::::::::::::::::::::::::::::::::::::::::::::

optimized geometry written to: xtbopt.xyz


           -------------------------------------------------
          | TOTAL ENERGY              -31.556110044953 Eh   |
          | TOTAL ENTHALPY            -31.323838888270 Eh   |
          | TOTAL FREE ENERGY         -31.376444066062 Eh   |
          | GRADIENT NORM               0.000025158438 Eh/α |
          | HOMO-LUMO GAP               3.638551182116 eV   |
           -------------------------------------------------

------------------------------------------------------------------------
 * finished run on 2025/07/14 at 11:28:36.909     
------------------------------------------------------------------------
 total:
 * wall-time:     0 d,  0 h,  0 min, 10.868 sec
 *  cpu-time:     0 d,  0 h,  1 min, 57.832 sec
 * ratio c/w:    10.842 speedup
 SCF:
 * wall-time:     0 d,  0 h,  0 min,  0.087 sec
 *  cpu-time:     0 d,  0 h,  0 min,  1.046 sec
 * ratio c/w:    11.957 speedup
 ANC optimizer:
 * wall-time:     0 d,  0 h,  0 min,  7.530 sec
 *  cpu-time:     0 d,  0 h,  1 min, 30.188 sec
 * ratio c/w:    11.978 speedup
 analytical hessian:
 * wall-time:     0 d,  0 h,  0 min,  3.241 sec
 *  cpu-time:     0 d,  0 h,  0 min, 26.498 sec
 * ratio c/w:     8.176 speedup

