      -----------------------------------------------------------      
     |                   =====================                   |     
     |                           x T B                           |     
     |                   =====================                   |     
     |                         S. Grimme                         |     
     |          Mulliken Center for Theoretical Chemistry        |     
     |                    University of Bonn                     |     
      -----------------------------------------------------------      

   * xtb version 6.7.0 (08769fc) compiled by 'albert@albert-system' on 2024-03-04

   xtb is free software: you can redistribute it and/or modify it under
   the terms of the GNU Lesser General Public License as published by
   the Free Software Foundation, either version 3 of the License, or
   (at your option) any later version.
   
   xtb is distributed in the hope that it will be useful,
   but WITHOUT ANY WARRANTY; without even the implied warranty of
   MERCHANTABILITY or FITNESS FOR A PARTICULAR PURPOSE.  See the
   GNU Lesser General Public License for more details.
   
   Cite this work as:
   * C. Bannwarth, E. Caldeweyher, S. Ehlert, A. Hansen, P. Pracht,
     J. Seibert, S. Spicher, S. Grimme, WIREs Comput. Mol. Sci., 2020, 11,
     e01493. DOI: 10.1002/wcms.1493
   
   for GFN2-xTB:
   * C. Bannwarth, S. Ehlert and S. Grimme., J. Chem. Theory Comput., 2019,
     15, 1652-1671. DOI: 10.1021/acs.jctc.8b01176
   for GFN1-xTB:
   * S. Grimme, C. Bannwarth, P. Shushkov, J. Chem. Theory Comput., 2017,
     13, 1989-2009. DOI: 10.1021/acs.jctc.7b00118
   for GFN0-xTB:
   * P. Pracht, E. Caldeweyher, S. Ehlert, S. Grimme, ChemRxiv, 2019, preprint.
     DOI: 10.26434/chemrxiv.8326202.v1
   for GFN-FF:
   * S. Spicher and S. Grimme, Angew. Chem. Int. Ed., 2020, 59, 15665-15673.
     DOI: 10.1002/anie.202004239
   
   for ALPB and GBSA implicit solvation:
   * S. Ehlert, M. Stahn, S. Spicher, S. Grimme, J. Chem. Theory Comput.,
     2021, 17, 4250-4261. DOI: 10.1021/acs.jctc.1c00471
   
   for ddCOSMO and CPCM-X implicit solvation:
   * M. Stahn, S. Ehlert, S. Grimme, J. Phys. Chem. A,
     2023, XX, XXXX-XXXX. DOI: 10.1021/acs.jpca.3c04382
   
   for DFT-D4:
   * E. Caldeweyher, C. Bannwarth and S. Grimme, J. Chem. Phys., 2017,
     147, 034112. DOI: 10.1063/1.4993215
   * E. Caldeweyher, S. Ehlert, A. Hansen, H. Neugebauer, S. Spicher,
     C. Bannwarth and S. Grimme, J. Chem. Phys., 2019, 150, 154122.
     DOI: 10.1063/1.5090222
   * E. Caldeweyher, J.-M. Mewes, S. Ehlert and S. Grimme, Phys. Chem. Chem. Phys.
     2020, 22, 8499-8512. DOI: 10.1039/D0CP00502A
   
   for sTDA-xTB:
   * S. Grimme and C. Bannwarth, J. Chem. Phys., 2016, 145, 054103.
     DOI: 10.1063/1.4959605
   
   in the mass-spec context:
   * V. Asgeirsson, C. Bauer and S. Grimme, Chem. Sci., 2017, 8, 4879.
     DOI: 10.1039/c7sc00601b
   * J. Koopman and S. Grimme, ACS Omega 2019, 4, 12, 15120-15133.
     DOI: 10.1021/acsomega.9b02011
   
   for metadynamics refer to:
   * S. Grimme, J. Chem. Theory Comput., 2019, 155, 2847-2862
     DOI: 10.1021/acs.jctc.9b00143
   
   for SPH calculations refer to:
   * S. Spicher and S. Grimme, J. Chem. Theory Comput., 2021, 17, 1701-1714
     DOI: 10.1021/acs.jctc.0c01306
   
   for ONIOM refer to:
   * C. Plett, A. Katbashev, S. Ehlert, S. Grimme, M. Bursch,
     Phys. Chem. Chem. Phys., 2023, 25, 17860-17868. DOI: 10.1039/D3CP02178E
   
   for DIPRO refer to:
   * J. Kohn, N. Gildemeister, S. Grimme, D. Fazzi, A. Hansen,
     J. Chem. Phys., 2023, just accepted.
   
   for PTB refer to:
   * S. Grimme, M. Mueller, A. Hansen, J. Chem. Phys., 2023, 158, 124111.
     DOI: 10.1063/5.0137838
   
   with help from (in alphabetical order)
   P. Atkinson, C. Bannwarth, F. Bohle, G. Brandenburg, E. Caldeweyher
   M. Checinski, S. Dohm, S. Ehlert, S. Ehrlich, I. Gerasimov, C. Hölzer
   A. Katbashev, J. Kohn, J. Koopman, C. Lavigne, S. Lehtola, F. März, M. Müller,
   F. Musil, H. Neugebauer, J. Pisarek, C. Plett, P. Pracht, F. Pultar,
   J. Seibert, P. Shushkov, S. Spicher, M. Stahn, M. Steiner, T. Strunk,
   J. Stückrath, T. Rose, and J. Unsleber
   
 * started run on 2025/07/14 at 11:37:07.970     
   ID    Z sym.   atoms
    1   15 P      1
    2    6 C      2, 5, 9-14, 20, 23
    3    1 H      3, 4, 6-8, 15-19, 21, 22, 24-26

           -------------------------------------------------
          |                Calculation Setup                |
           -------------------------------------------------

          program call               : /home/minenky/programs/xtb/xtb-dist/bin/xtb m1_00_PEt2Ph-PBE0-D3-TZ-uniMM_66.xyz --charge 0 --T --ohess extreme --cycles 5000 --acc 0.01 --iterations 5000
          coordinate file            : m1_00_PEt2Ph-PBE0-D3-TZ-uniMM_66.xyz
          omp threads                :                    12

########################################################################
[WARNING] Please study the warnings concerning your input carefully
-1- prog_main_parseArguments: Unknown option '--T' provided
########################################################################

           -------------------------------------------------
          |                 G F N 2 - x T B                 |
           -------------------------------------------------

        Reference                      10.1021/acs.jctc.8b01176
      * Hamiltonian:
        H0-scaling (s, p, d)           1.850000    2.230000    2.230000
        zeta-weighting                 0.500000
      * Dispersion:
        s8                             2.700000
        a1                             0.520000
        a2                             5.000000
        s9                             5.000000
      * Repulsion:
        kExp                           1.500000    1.000000
        rExp                           1.000000
      * Coulomb:
        alpha                          2.000000
        third order                    shell-resolved
        anisotropic                    true
        a3                             3.000000
        a5                             4.000000
        cn-shift                       1.200000
        cn-exp                         4.000000
        max-rad                        5.000000


          ...................................................
          :                      SETUP                      :
          :.................................................:
          :  # basis functions                  65          :
          :  # atomic orbitals                  64          :
          :  # shells                           38          :
          :  # electrons                        60          :
          :  max. iterations                  5000          :
          :  Hamiltonian                  GFN2-xTB          :
          :  restarted?                      false          :
          :  GBSA solvation                  false          :
          :  PC potential                    false          :
          :  electronic temp.          300.0000000     K    :
          :  accuracy                    0.0100000          :
          :  -> integral cutoff          0.4500000E+02      :
          :  -> integral neglect         0.1000000E-09      :
          :  -> SCF convergence          0.1000000E-07 Eh   :
          :  -> wf. convergence          0.1000000E-05 e    :
          :  Broyden damping             0.4000000          :
          :  net charge                          0          :
          :  unpaired electrons                  0          :
          ...................................................

 iter      E             dE          RMSdq      gap      omega  full diag
   1    -32.0059769 -0.320060E+02  0.350E+00    3.92       0.0  T
   2    -32.0481969 -0.422200E-01  0.208E+00    3.47       1.0  T
   3    -32.0480505  0.146394E-03  0.874E-01    3.19       1.0  T
   4    -32.0495394 -0.148889E-02  0.278E-01    3.22       1.0  T
   5    -32.0504649 -0.925515E-03  0.132E-01    3.26       1.0  T
   6    -32.0507302 -0.265343E-03  0.417E-02    3.25       1.0  T
   7    -32.0507455 -0.152513E-04  0.158E-02    3.26       1.2  T
   8    -32.0507463 -0.857338E-06  0.672E-03    3.26       2.9  T
   9    -32.0507468 -0.418729E-06  0.160E-03    3.26      12.2  T
  10    -32.0507468 -0.433648E-07  0.580E-04    3.26      33.8  T
  11    -32.0507468 -0.820805E-09  0.265E-04    3.26      74.1  T
  12    -32.0507468 -0.262219E-09  0.555E-05    3.26     353.5  T
  13    -32.0507468 -0.171028E-10  0.289E-05    3.26     678.6  T
  14    -32.0507468 -0.328981E-11  0.970E-06    3.26    2022.1  T
  15    -32.0507468 -0.120792E-12  0.384E-06    3.26    5110.1  T

   *** convergence criteria satisfied after 15 iterations ***

         #    Occupation            Energy/Eh            Energy/eV
      -------------------------------------------------------------
         1        2.0000           -0.6595896             -17.9483
       ...           ...                  ...                  ...
        24        2.0000           -0.4303317             -11.7099
        25        2.0000           -0.4233530             -11.5200
        26        2.0000           -0.4151984             -11.2981
        27        2.0000           -0.4092838             -11.1372
        28        2.0000           -0.4038519             -10.9894
        29        2.0000           -0.4010310             -10.9126
        30        2.0000           -0.3534555              -9.6180 (HOMO)
        31                         -0.2337134              -6.3597 (LUMO)
        32                         -0.2239884              -6.0950
        33                         -0.1458072              -3.9676
        34                         -0.1429670              -3.8903
        35                         -0.0944045              -2.5689
       ...                                ...                  ...
        64                          0.7764182              21.1274
      -------------------------------------------------------------
                  HL-Gap            0.1197422 Eh            3.2584 eV
             Fermi-level           -0.2935844 Eh           -7.9888 eV

 SCC (total)                   0 d,  0 h,  0 min,  0.087 sec
 SCC setup                      ...        0 min,  0.000 sec (  0.144%)
 Dispersion                     ...        0 min,  0.000 sec (  0.139%)
 classical contributions        ...        0 min,  0.000 sec (  0.012%)
 integral evaluation            ...        0 min,  0.002 sec (  2.230%)
 iterations                     ...        0 min,  0.083 sec ( 95.313%)
 molecular gradient             ...        0 min,  0.002 sec (  2.054%)
 printout                       ...        0 min,  0.000 sec (  0.090%)

         :::::::::::::::::::::::::::::::::::::::::::::::::::::
         ::                     SUMMARY                     ::
         :::::::::::::::::::::::::::::::::::::::::::::::::::::
         :: total energy             -31.535334111816 Eh    ::
         :: gradient norm              0.048630799257 Eh/a0 ::
         :: HOMO-LUMO gap              3.258350202081 eV    ::
         ::.................................................::
         :: SCC energy               -32.050613430843 Eh    ::
         :: -> isotropic ES            0.004333445174 Eh    ::
         :: -> anisotropic ES          0.006553964384 Eh    ::
         :: -> anisotropic XC          0.021971694186 Eh    ::
         :: -> dispersion             -0.023988730653 Eh    ::
         :: repulsion energy           0.515279319026 Eh    ::
         :: add. restraining           0.000000000000 Eh    ::
         :: total charge              -0.000000000000 e     ::
         :::::::::::::::::::::::::::::::::::::::::::::::::::::

      ----------------------------------------------------------- 
     |                   =====================                   |
     |                        A N C O P T                        |
     |                   =====================                   |
     |               Approximate Normal Coordinate               |
     |                Rational Function Optimizer                |
      ----------------------------------------------------------- 
      ----------------------------------------------------------- 
     |                   =====================                   |
     |                        A N C O P T                        |
     |                   =====================                   |
     |               Approximate Normal Coordinate               |
     |                Rational Function Optimizer                |
      ----------------------------------------------------------- 

          ...................................................
          :                      SETUP                      :
          :.................................................:
          :   optimization level           extreme          :
          :   max. optcycles                  5000          :
          :   ANC micro-cycles                  20          :
          :   degrees of freedom                72          :
          :.................................................:
          :   RF solver                   davidson          :
          :   write xtbopt.log                true          :
          :   linear?                        false          :
          :   energy convergence         0.5000000E-07 Eh   :
          :   grad. convergence          0.5000000E-04 Eh/α :
          :   maxmium RF displ.          1.0000000          :
          :   Hlow (freq-cutoff)         0.1000000E-01      :
          :   Hmax (freq-cutoff)         5.0000000          :
          :   S6 in model hess.         20.0000000          :
          ...................................................

generating ANC from model Hessian ...
Using Lindh-Hessian (1995)
 Shifting diagonal of input Hessian by   1.298362715205661E-002
 Lowest  eigenvalues of input Hessian
    0.010000    0.000000    0.000000    0.000000    0.000000    0.000000
    0.000000    0.013282    0.014157    0.014380    0.014986    0.015777
    0.018948    0.020928    0.021835    0.022769    0.024886    0.027417
 Highest eigenvalues
    1.350804    1.538663    1.565615    1.867754    1.969502    1.989411
 

........................................................................
.............................. CYCLE    1 ..............................
........................................................................

 iter      E             dE          RMSdq      gap      omega  full diag
   1    -32.0507468 -0.320507E+02  0.133E-06    3.26       0.0  T
   2    -32.0507468  0.426326E-13  0.822E-07    3.26   23869.8  T
   3    -32.0507468 -0.355271E-13  0.420E-07    3.26   46661.0  T
     SCC iter.                  ...        0 min,  0.072 sec
     gradient                   ...        0 min,  0.002 sec
 * total energy  :   -31.5353341 Eh     change       -0.3126388E-12 Eh
   gradient norm :     0.0486308 Eh/α   predicted     0.0000000E+00 (-100.00%)
   displ. norm   :     0.6078251 α      lambda       -0.1617389E-01
   maximum displ.:     0.4369353 α      in ANC's #1, #6, #8, ...

........................................................................
.............................. CYCLE    2 ..............................
........................................................................

 iter      E             dE          RMSdq      gap      omega  full diag
   1    -32.0627086 -0.320627E+02  0.353E-01    3.47       0.0  T
   2    -32.0629092 -0.200674E-03  0.164E-01    3.53       1.0  T
   3    -32.0629173 -0.807376E-05  0.595E-02    3.56       1.0  T
   4    -32.0629236 -0.624881E-05  0.383E-02    3.56       1.0  T
   5    -32.0629390 -0.153974E-04  0.715E-03    3.56       2.7  T
   6    -32.0629397 -0.688712E-06  0.343E-03    3.56       5.7  T
   7    -32.0629397 -0.331330E-07  0.136E-03    3.56      14.4  T
   8    -32.0629397 -0.209720E-08  0.403E-04    3.56      48.7  T
   9    -32.0629397 -0.268248E-08  0.127E-04    3.56     154.1  T
  10    -32.0629397 -0.912550E-10  0.440E-05    3.56     445.8  T
  11    -32.0629397 -0.137277E-10  0.176E-05    3.56    1112.5  T
  12    -32.0629397 -0.255085E-11  0.648E-06    3.56    3024.4  T
  13    -32.0629397 -0.426326E-13  0.255E-06    3.56    7681.6  T
     SCC iter.                  ...        0 min,  0.075 sec
     gradient                   ...        0 min,  0.002 sec
 * total energy  :   -31.5453371 Eh     change       -0.1000298E-01 Eh
   gradient norm :     0.0158451 Eh/α   predicted    -0.1107469E-01 (  10.71%)
   displ. norm   :     0.4504871 α      lambda       -0.4164210E-02
   maximum displ.:     0.2910169 α      in ANC's #1, #6, #5, ...

........................................................................
.............................. CYCLE    3 ..............................
........................................................................

 iter      E             dE          RMSdq      gap      omega  full diag
   1    -32.0661843 -0.320662E+02  0.142E-01    3.56       0.0  T
   2    -32.0661982 -0.139123E-04  0.830E-02    3.57       1.0  T
   3    -32.0661982  0.783103E-08  0.182E-02    3.56       1.1  T
   4    -32.0661992 -0.951484E-06  0.468E-03    3.56       4.2  T
   5    -32.0661993 -0.106135E-06  0.245E-03    3.56       8.0  T
   6    -32.0661993 -0.728744E-07  0.102E-03    3.56      19.2  T
   7    -32.0661993 -0.387937E-08  0.400E-04    3.56      49.0  T
   8    -32.0661993 -0.144988E-08  0.115E-04    3.56     170.5  T
   9    -32.0661993 -0.983249E-10  0.545E-05    3.56     359.6  T
  10    -32.0661993 -0.204921E-10  0.157E-05    3.56    1247.9  T
  11    -32.0661993 -0.449774E-11  0.872E-06    3.56    2248.3  T
  12    -32.0661993 -0.305533E-12  0.213E-06    3.56    9218.0  T
     SCC iter.                  ...        0 min,  0.074 sec
     gradient                   ...        0 min,  0.002 sec
 * total energy  :   -31.5483692 Eh     change       -0.3032129E-02 Eh
   gradient norm :     0.0079579 Eh/α   predicted    -0.2505952E-02 ( -17.35%)
   displ. norm   :     0.4434239 α      lambda       -0.2195971E-02
   maximum displ.:     0.2911195 α      in ANC's #6, #1, #5, ...

........................................................................
.............................. CYCLE    4 ..............................
........................................................................

 iter      E             dE          RMSdq      gap      omega  full diag
   1    -32.0669164 -0.320669E+02  0.132E-01    3.61       0.0  T
   2    -32.0669262 -0.982421E-05  0.731E-02    3.61       1.0  T
   3    -32.0669251  0.109733E-05  0.171E-02    3.62       1.1  T
   4    -32.0669259 -0.767685E-06  0.914E-03    3.62       2.1  T
   5    -32.0669275 -0.161842E-05  0.200E-03    3.62       9.8  T
   6    -32.0669275 -0.109740E-07  0.712E-04    3.62      27.5  T
   7    -32.0669275 -0.306613E-09  0.347E-04    3.62      56.5  T
   8    -32.0669275 -0.982254E-09  0.935E-05    3.62     209.8  T
   9    -32.0669275 -0.734701E-11  0.299E-05    3.62     655.9  T
  10    -32.0669275 -0.815703E-11  0.124E-05    3.62    1576.1  T
  11    -32.0669275 -0.383693E-12  0.350E-06    3.62    5608.7  T
  12    -32.0669275 -0.270006E-12  0.140E-06    3.62   13964.3  T
     SCC iter.                  ...        0 min,  0.074 sec
     gradient                   ...        0 min,  0.002 sec
 * total energy  :   -31.5498985 Eh     change       -0.1529326E-02 Eh
   gradient norm :     0.0084410 Eh/α   predicted    -0.1313877E-02 ( -14.09%)
   displ. norm   :     0.3680104 α      lambda       -0.1024020E-02
   maximum displ.:     0.2471865 α      in ANC's #6, #5, #1, ...

........................................................................
.............................. CYCLE    5 ..............................
........................................................................

 iter      E             dE          RMSdq      gap      omega  full diag
   1    -32.0684763 -0.320685E+02  0.848E-02    3.62       0.0  T
   2    -32.0684785 -0.224940E-05  0.490E-02    3.61       1.0  T
   3    -32.0684756  0.290396E-05  0.129E-02    3.61       1.5  T
   4    -32.0684790 -0.337105E-05  0.476E-03    3.61       4.1  T
   5    -32.0684793 -0.300412E-06  0.145E-03    3.61      13.5  T
   6    -32.0684793 -0.339396E-08  0.541E-04    3.61      36.2  T
   7    -32.0684793 -0.216630E-09  0.182E-04    3.61     107.9  T
   8    -32.0684793 -0.188024E-09  0.623E-05    3.61     315.0  T
   9    -32.0684793 -0.200799E-10  0.197E-05    3.61     995.9  T
  10    -32.0684793 -0.231637E-11  0.649E-06    3.61    3022.3  T
  11    -32.0684793 -0.255795E-12  0.331E-06    3.61    5923.2  T
     SCC iter.                  ...        0 min,  0.073 sec
     gradient                   ...        0 min,  0.002 sec
 * total energy  :   -31.5506363 Eh     change       -0.7377427E-03 Eh
   gradient norm :     0.0069860 Eh/α   predicted    -0.5813534E-03 ( -21.20%)
   displ. norm   :     0.3464438 α      lambda       -0.6394141E-03
   maximum displ.:     0.2319044 α      in ANC's #6, #5, #4, ...

........................................................................
.............................. CYCLE    6 ..............................
........................................................................

 iter      E             dE          RMSdq      gap      omega  full diag
   1    -32.0696527 -0.320697E+02  0.728E-02    3.63       0.0  T
   2    -32.0696533 -0.667235E-06  0.427E-02    3.63       1.0  T
   3    -32.0696522  0.115131E-05  0.813E-03    3.63       2.4  T
   4    -32.0696536 -0.140494E-05  0.266E-03    3.63       7.4  T
   5    -32.0696536 -0.415699E-07  0.122E-03    3.63      16.0  T
   6    -32.0696536 -0.321572E-08  0.271E-04    3.63      72.3  T
   7    -32.0696536 -0.151246E-09  0.101E-04    3.63     193.8  T
   8    -32.0696536 -0.134399E-09  0.398E-05    3.63     493.1  T
   9    -32.0696536 -0.753175E-11  0.158E-05    3.63    1240.8  T
  10    -32.0696536 -0.176925E-11  0.543E-06    3.63    3611.0  T
  11    -32.0696536 -0.284217E-12  0.250E-06    3.63    7842.4  T
     SCC iter.                  ...        0 min,  0.074 sec
     gradient                   ...        0 min,  0.002 sec
 * total energy  :   -31.5511103 Eh     change       -0.4739940E-03 Eh
   gradient norm :     0.0053556 Eh/α   predicted    -0.3580798E-03 ( -24.45%)
   displ. norm   :     0.3390881 α      lambda       -0.4687233E-03
   maximum displ.:     0.2145324 α      in ANC's #5, #6, #4, ...

........................................................................
.............................. CYCLE    7 ..............................
........................................................................

 iter      E             dE          RMSdq      gap      omega  full diag
   1    -32.0707916 -0.320708E+02  0.738E-02    3.63       0.0  T
   2    -32.0707923 -0.684007E-06  0.433E-02    3.63       1.0  T
   3    -32.0707920  0.332403E-06  0.545E-03    3.63       3.6  T
   4    -32.0707924 -0.454135E-06  0.232E-03    3.63       8.5  T
   5    -32.0707925 -0.674948E-07  0.111E-03    3.63      17.6  T
   6    -32.0707925 -0.779556E-08  0.426E-04    3.63      46.0  T
   7    -32.0707925 -0.379146E-10  0.111E-04    3.63     176.0  T
   8    -32.0707925 -0.129667E-09  0.473E-05    3.63     414.9  T
   9    -32.0707925 -0.260840E-10  0.151E-05    3.63    1296.9  T
  10    -32.0707925 -0.211031E-11  0.595E-06    3.63    3296.2  T
  11    -32.0707925 -0.170530E-12  0.238E-06    3.63    8229.1  T
     SCC iter.                  ...        0 min,  0.075 sec
     gradient                   ...        0 min,  0.002 sec
 * total energy  :   -31.5514523 Eh     change       -0.3420219E-03 Eh
   gradient norm :     0.0045931 Eh/α   predicted    -0.2613129E-03 ( -23.60%)
   displ. norm   :     0.2957342 α      lambda       -0.3091535E-03
   maximum displ.:     0.2014825 α      in ANC's #5, #6, #4, ...

........................................................................
.............................. CYCLE    8 ..............................
........................................................................

 iter      E             dE          RMSdq      gap      omega  full diag
   1    -32.0715652 -0.320716E+02  0.732E-02    3.64       0.0  T
   2    -32.0715659 -0.699746E-06  0.428E-02    3.64       1.0  T
   3    -32.0715657  0.125772E-06  0.620E-03    3.64       3.2  T
   4    -32.0715660 -0.271931E-06  0.163E-03    3.64      12.0  T
   5    -32.0715660 -0.734257E-08  0.728E-04    3.64      27.0  T
   6    -32.0715660 -0.430249E-08  0.380E-04    3.64      51.6  T
   7    -32.0715660 -0.930775E-09  0.674E-05    3.64     290.9  T
   8    -32.0715660 -0.594014E-11  0.270E-05    3.64     726.9  T
   9    -32.0715660 -0.560618E-11  0.112E-05    3.64    1746.7  T
  10    -32.0715660 -0.945022E-12  0.434E-06    3.64    4515.6  T
  11    -32.0715660 -0.227374E-12  0.174E-06    3.64   11281.5  T
     SCC iter.                  ...        0 min,  0.075 sec
     gradient                   ...        0 min,  0.002 sec
 * total energy  :   -31.5516731 Eh     change       -0.2207588E-03 Eh
   gradient norm :     0.0050026 Eh/α   predicted    -0.1680993E-03 ( -23.85%)
   displ. norm   :     0.2160841 α      lambda       -0.1906118E-03
   maximum displ.:     0.1535306 α      in ANC's #5, #4, #8, ...

........................................................................
.............................. CYCLE    9 ..............................
........................................................................

 iter      E             dE          RMSdq      gap      omega  full diag
   1    -32.0726698 -0.320727E+02  0.657E-02    3.63       0.0  T
   2    -32.0726706 -0.793884E-06  0.382E-02    3.63       1.0  T
   3    -32.0726703  0.254815E-06  0.752E-03    3.63       2.6  T
   4    -32.0726707 -0.405388E-06  0.171E-03    3.63      11.5  T
   5    -32.0726707 -0.460241E-08  0.881E-04    3.63      22.3  T
   6    -32.0726707 -0.913473E-08  0.335E-04    3.63      58.6  T
   7    -32.0726707 -0.389292E-09  0.999E-05    3.63     196.3  T
   8    -32.0726707 -0.648512E-10  0.348E-05    3.63     563.4  T
   9    -32.0726707 -0.204707E-10  0.166E-05    3.63    1182.6  T
  10    -32.0726707 -0.154898E-11  0.378E-06    3.63    5186.1  T
  11    -32.0726707 -0.568434E-13  0.171E-06    3.63   11470.9  T
     SCC iter.                  ...        0 min,  0.076 sec
     gradient                   ...        0 min,  0.002 sec
 * total energy  :   -31.5518048 Eh     change       -0.1317544E-03 Eh
   gradient norm :     0.0038718 Eh/α   predicted    -0.9975791E-04 ( -24.28%)
   displ. norm   :     0.1687725 α      lambda       -0.1073118E-03
   maximum displ.:     0.1282236 α      in ANC's #5, #4, #2, ...

........................................................................
.............................. CYCLE   10 ..............................
........................................................................

 iter      E             dE          RMSdq      gap      omega  full diag
   1    -32.0724416 -0.320724E+02  0.545E-02    3.63       0.0  T
   2    -32.0724422 -0.556692E-06  0.320E-02    3.63       1.0  T
   3    -32.0724419  0.284871E-06  0.771E-03    3.63       2.5  T
   4    -32.0724423 -0.422559E-06  0.121E-03    3.63      16.3  T
   5    -32.0724423 -0.228667E-09  0.801E-04    3.63      24.5  T
   6    -32.0724423 -0.569670E-08  0.227E-04    3.63      86.3  T
   7    -32.0724423 -0.180037E-09  0.668E-05    3.63     293.5  T
   8    -32.0724423 -0.404086E-10  0.287E-05    3.63     683.3  T
   9    -32.0724423 -0.126263E-10  0.110E-05    3.63    1786.4  T
  10    -32.0724423 -0.561329E-12  0.323E-06    3.63    6080.2  T
  11    -32.0724423 -0.781597E-13  0.139E-06    3.63   14075.0  T
     SCC iter.                  ...        0 min,  0.075 sec
     gradient                   ...        0 min,  0.002 sec
 * total energy  :   -31.5518806 Eh     change       -0.7576578E-04 Eh
   gradient norm :     0.0030491 Eh/α   predicted    -0.5519704E-04 ( -27.15%)
   displ. norm   :     0.1800230 α      lambda       -0.1211434E-03
   maximum displ.:     0.1108654 α      in ANC's #2, #5, #6, ...

........................................................................
.............................. CYCLE   11 ..............................
........................................................................

 iter      E             dE          RMSdq      gap      omega  full diag
   1    -32.0737114 -0.320737E+02  0.717E-02    3.63       0.0  T
   2    -32.0737122 -0.779181E-06  0.415E-02    3.62       1.0  T
   3    -32.0737121  0.885708E-07  0.641E-03    3.63       3.1  T
   4    -32.0737123 -0.212917E-06  0.141E-03    3.62      13.9  T
   5    -32.0737123 -0.183410E-08  0.775E-04    3.62      25.3  T
   6    -32.0737123 -0.372242E-08  0.237E-04    3.62      82.6  T
   7    -32.0737123 -0.395296E-09  0.890E-05    3.62     220.4  T
   8    -32.0737123 -0.271925E-10  0.271E-05    3.62     725.0  T
   9    -32.0737123 -0.635936E-11  0.131E-05    3.62    1497.7  T
  10    -32.0737123 -0.117240E-11  0.451E-06    3.62    4351.8  T
  11    -32.0737123 -0.213163E-13  0.195E-06    3.62   10050.8  T
     SCC iter.                  ...        0 min,  0.074 sec
     gradient                   ...        0 min,  0.002 sec
 * total energy  :   -31.5519539 Eh     change       -0.7330834E-04 Eh
   gradient norm :     0.0038654 Eh/α   predicted    -0.6255206E-04 ( -14.67%)
   displ. norm   :     0.2585460 α      lambda       -0.1383430E-03
   maximum displ.:     0.1749678 α      in ANC's #5, #2, #4, ...

........................................................................
.............................. CYCLE   12 ..............................
........................................................................

 iter      E             dE          RMSdq      gap      omega  full diag
   1    -32.0715304 -0.320715E+02  0.903E-02    3.62       0.0  T
   2    -32.0715316 -0.112143E-05  0.530E-02    3.62       1.0  T
   3    -32.0715313  0.268576E-06  0.874E-03    3.62       2.2  T
   4    -32.0715318 -0.488969E-06  0.192E-03    3.62      10.2  T
   5    -32.0715318 -0.415286E-08  0.869E-04    3.62      22.6  T
   6    -32.0715318 -0.581892E-08  0.487E-04    3.62      40.3  T
   7    -32.0715318 -0.165654E-08  0.116E-04    3.62     169.4  T
   8    -32.0715318 -0.141632E-09  0.367E-05    3.62     533.9  T
   9    -32.0715318 -0.734701E-11  0.186E-05    3.62    1051.9  T
  10    -32.0715318 -0.155609E-11  0.462E-06    3.62    4248.6  T
  11    -32.0715318 -0.156319E-12  0.214E-06    3.62    9151.1  T
     SCC iter.                  ...        0 min,  0.074 sec
     gradient                   ...        0 min,  0.002 sec
 * total energy  :   -31.5520515 Eh     change       -0.9758744E-04 Eh
   gradient norm :     0.0054520 Eh/α   predicted    -0.7379876E-04 ( -24.38%)
   displ. norm   :     0.3447991 α      lambda       -0.2147697E-03
   maximum displ.:     0.2456187 α      in ANC's #2, #5, #6, ...

........................................................................
.............................. CYCLE   13 ..............................
........................................................................

 iter      E             dE          RMSdq      gap      omega  full diag
   1    -32.0698234 -0.320698E+02  0.136E-01    3.62       0.0  T
   2    -32.0698249 -0.148243E-05  0.789E-02    3.62       1.0  T
   3    -32.0698247  0.188910E-06  0.660E-03    3.62       3.0  T
   4    -32.0698250 -0.259727E-06  0.368E-03    3.62       5.3  T
   5    -32.0698252 -0.230607E-06  0.953E-04    3.62      20.6  T
   6    -32.0698252 -0.574985E-08  0.506E-04    3.62      38.8  T
   7    -32.0698252 -0.367002E-09  0.977E-05    3.62     200.7  T
   8    -32.0698252 -0.129525E-09  0.354E-05    3.62     554.0  T
   9    -32.0698252 -0.797229E-11  0.158E-05    3.62    1242.5  T
  10    -32.0698252 -0.239453E-11  0.556E-06    3.62    3526.0  T
  11    -32.0698252 -0.781597E-13  0.181E-06    3.62   10823.9  T
     SCC iter.                  ...        0 min,  0.074 sec
     gradient                   ...        0 min,  0.002 sec
 * total energy  :   -31.5522278 Eh     change       -0.1763129E-03 Eh
   gradient norm :     0.0066270 Eh/α   predicted    -0.1201540E-03 ( -31.85%)
   displ. norm   :     0.3504647 α      lambda       -0.2819966E-03
   maximum displ.:     0.2565612 α      in ANC's #2, #6, #5, ...

........................................................................
.............................. CYCLE   14 ..............................
........................................................................

 iter      E             dE          RMSdq      gap      omega  full diag
   1    -32.0693300 -0.320693E+02  0.147E-01    3.62       0.0  T
   2    -32.0693320 -0.195074E-05  0.847E-02    3.62       1.0  T
   3    -32.0693307  0.125691E-05  0.112E-02    3.62       1.8  T
   4    -32.0693322 -0.148098E-05  0.395E-03    3.62       5.0  T
   5    -32.0693324 -0.237627E-06  0.125E-03    3.62      15.6  T
   6    -32.0693324 -0.140612E-07  0.519E-04    3.62      37.8  T
   7    -32.0693324  0.217440E-09  0.135E-04    3.62     145.7  T
   8    -32.0693324 -0.429488E-09  0.376E-05    3.62     522.2  T
   9    -32.0693324 -0.976286E-11  0.186E-05    3.62    1055.6  T
  10    -32.0693324 -0.162714E-11  0.586E-06    3.62    3346.0  T
  11    -32.0693324 -0.852651E-13  0.209E-06    3.62    9362.1  T
     SCC iter.                  ...        0 min,  0.074 sec
     gradient                   ...        0 min,  0.002 sec
 * total energy  :   -31.5524449 Eh     change       -0.2171154E-03 Eh
   gradient norm :     0.0054029 Eh/α   predicted    -0.1583188E-03 ( -27.08%)
   displ. norm   :     0.3181590 α      lambda       -0.2223014E-03
   maximum displ.:     0.2276164 α      in ANC's #2, #5, #6, ...

........................................................................
.............................. CYCLE   15 ..............................
........................................................................

 iter      E             dE          RMSdq      gap      omega  full diag
   1    -32.0695505 -0.320696E+02  0.130E-01    3.62       0.0  T
   2    -32.0695524 -0.182521E-05  0.755E-02    3.63       1.0  T
   3    -32.0695512  0.115443E-05  0.964E-03    3.62       2.0  T
   4    -32.0695524 -0.120939E-05  0.430E-03    3.63       4.6  T
   5    -32.0695528 -0.346450E-06  0.130E-03    3.63      15.1  T
   6    -32.0695528 -0.118795E-07  0.506E-04    3.62      38.7  T
   7    -32.0695528  0.131735E-09  0.117E-04    3.62     167.0  T
   8    -32.0695528 -0.276188E-09  0.418E-05    3.62     468.7  T
   9    -32.0695528 -0.871836E-11  0.188E-05    3.62    1041.4  T
  10    -32.0695528 -0.239453E-11  0.527E-06    3.62    3721.9  T
  11    -32.0695528  0.710543E-14  0.189E-06    3.62   10363.7  T
     SCC iter.                  ...        0 min,  0.078 sec
     gradient                   ...        0 min,  0.002 sec
 * total energy  :   -31.5526290 Eh     change       -0.1840584E-03 Eh
   gradient norm :     0.0047222 Eh/α   predicted    -0.1224080E-03 ( -33.50%)
   displ. norm   :     0.3677389 α      lambda       -0.2526458E-03
   maximum displ.:     0.2673413 α      in ANC's #2, #5, #6, ...

........................................................................
.............................. CYCLE   16 ..............................
........................................................................

 iter      E             dE          RMSdq      gap      omega  full diag
   1    -32.0712661 -0.320713E+02  0.150E-01    3.62       0.0  T
   2    -32.0712680 -0.187796E-05  0.876E-02    3.63       1.0  T
   3    -32.0712665  0.142954E-05  0.107E-02    3.63       1.8  T
   4    -32.0712682 -0.165322E-05  0.393E-03    3.63       5.0  T
   5    -32.0712684 -0.260755E-06  0.154E-03    3.63      12.7  T
   6    -32.0712685 -0.212730E-07  0.560E-04    3.63      35.0  T
   7    -32.0712685 -0.149420E-09  0.117E-04    3.63     168.3  T
   8    -32.0712685 -0.126597E-09  0.553E-05    3.63     354.6  T
   9    -32.0712685 -0.309726E-10  0.221E-05    3.63     887.4  T
  10    -32.0712685 -0.487432E-11  0.825E-06    3.63    2376.1  T
  11    -32.0712685 -0.191847E-12  0.225E-06    3.63    8706.9  T
     SCC iter.                  ...        0 min,  0.074 sec
     gradient                   ...        0 min,  0.002 sec
 * total energy  :   -31.5528358 Eh     change       -0.2067855E-03 Eh
   gradient norm :     0.0046737 Eh/α   predicted    -0.1434072E-03 ( -30.65%)
   displ. norm   :     0.4195412 α      lambda       -0.2377816E-03
   maximum displ.:     0.3029190 α      in ANC's #2, #5, #6, ...

........................................................................
.............................. CYCLE   17 ..............................
........................................................................

 iter      E             dE          RMSdq      gap      omega  full diag
   1    -32.0717202 -0.320717E+02  0.169E-01    3.62       0.0  T
   2    -32.0717229 -0.261727E-05  0.992E-02    3.62       1.0  T
   3    -32.0717209  0.195674E-05  0.148E-02    3.62       1.3  T
   4    -32.0717235 -0.254181E-05  0.310E-03    3.62       6.3  T
   5    -32.0717236 -0.102463E-06  0.169E-03    3.62      11.6  T
   6    -32.0717236 -0.413171E-07  0.588E-04    3.62      33.3  T
   7    -32.0717236 -0.127613E-09  0.138E-04    3.62     142.5  T
   8    -32.0717236 -0.279634E-09  0.526E-05    3.62     373.1  T
   9    -32.0717236 -0.238245E-10  0.224E-05    3.62     874.8  T
  10    -32.0717236 -0.677147E-11  0.750E-06    3.62    2613.3  T
  11    -32.0717236 -0.333955E-12  0.224E-06    3.62    8744.9  T
     SCC iter.                  ...        0 min,  0.074 sec
     gradient                   ...        0 min,  0.002 sec
 * total energy  :   -31.5530382 Eh     change       -0.2023953E-03 Eh
   gradient norm :     0.0055168 Eh/α   predicted    -0.1398218E-03 ( -30.92%)
   displ. norm   :     0.4395686 α      lambda       -0.2807554E-03
   maximum displ.:     0.3467836 α      in ANC's #2, #5, #6, ...

........................................................................
.............................. CYCLE   18 ..............................
........................................................................

 iter      E             dE          RMSdq      gap      omega  full diag
   1    -32.0748620 -0.320749E+02  0.185E-01    3.62       0.0  T
   2    -32.0748645 -0.251213E-05  0.109E-01    3.62       1.0  T
   3    -32.0748629  0.162314E-05  0.134E-02    3.62       1.5  T
   4    -32.0748651 -0.222300E-05  0.290E-03    3.62       6.8  T
   5    -32.0748652 -0.854872E-07  0.169E-03    3.62      11.6  T
   6    -32.0748652 -0.342979E-07  0.548E-04    3.62      35.8  T
   7    -32.0748652 -0.271882E-09  0.167E-04    3.62     117.5  T
   8    -32.0748652 -0.452474E-10  0.709E-05    3.62     276.7  T
   9    -32.0748652 -0.866720E-10  0.255E-05    3.62     770.2  T
  10    -32.0748652 -0.265032E-11  0.683E-06    3.62    2869.6  T
  11    -32.0748652 -0.532907E-12  0.181E-06    3.62   10809.7  T
     SCC iter.                  ...        0 min,  0.074 sec
     gradient                   ...        0 min,  0.002 sec
 * total energy  :   -31.5532593 Eh     change       -0.2211864E-03 Eh
   gradient norm :     0.0060956 Eh/α   predicted    -0.1675017E-03 ( -24.27%)
   displ. norm   :     0.5646201 α      lambda       -0.3273063E-03
   maximum displ.:     0.4132029 α      in ANC's #2, #5, #4, ...

........................................................................
.............................. CYCLE   19 ..............................
........................................................................

 iter      E             dE          RMSdq      gap      omega  full diag
   1    -32.0708932 -0.320709E+02  0.227E-01    3.61       0.0  T
   2    -32.0708985 -0.529604E-05  0.134E-01    3.61       1.0  T
   3    -32.0708952  0.324093E-05  0.221E-02    3.61       1.0  T
   4    -32.0708997 -0.446969E-05  0.369E-03    3.61       5.3  T
   5    -32.0708998 -0.809073E-07  0.215E-03    3.61       9.1  T
   6    -32.0708998 -0.395896E-07  0.930E-04    3.61      21.1  T
   7    -32.0708998 -0.448075E-08  0.228E-04    3.61      86.0  T
   8    -32.0708998 -0.287649E-09  0.856E-05    3.61     229.2  T
   9    -32.0708998 -0.130115E-09  0.352E-05    3.61     557.0  T
  10    -32.0708998 -0.188294E-11  0.115E-05    3.61    1704.7  T
  11    -32.0708998 -0.154188E-11  0.349E-06    3.61    5620.1  T
  12    -32.0708998 -0.426326E-13  0.674E-07    3.61   29081.6  T
     SCC iter.                  ...        0 min,  0.074 sec
     gradient                   ...        0 min,  0.003 sec
 * total energy  :   -31.5534631 Eh     change       -0.2037593E-03 Eh
   gradient norm :     0.0081392 Eh/α   predicted    -0.2158266E-03 (   5.92%)
   displ. norm   :     0.3799314 α      lambda       -0.2989514E-03
   maximum displ.:     0.3165273 α      in ANC's #2, #5, #4, ...

........................................................................
.............................. CYCLE   20 ..............................
........................................................................

 iter      E             dE          RMSdq      gap      omega  full diag
   1    -32.0723400 -0.320723E+02  0.161E-01    3.61       0.0  T
   2    -32.0723420 -0.195323E-05  0.951E-02    3.61       1.0  T
   3    -32.0723408  0.117903E-05  0.120E-02    3.61       1.6  T
   4    -32.0723425 -0.168028E-05  0.250E-03    3.62       7.8  T
   5    -32.0723425 -0.422768E-07  0.127E-03    3.61      15.5  T
   6    -32.0723426 -0.264523E-07  0.508E-04    3.62      38.6  T
   7    -32.0723426 -0.283144E-09  0.126E-04    3.62     155.6  T
   8    -32.0723426 -0.277524E-09  0.488E-05    3.62     402.1  T
   9    -32.0723426 -0.249258E-10  0.186E-05    3.62    1052.5  T
  10    -32.0723426 -0.220268E-11  0.648E-06    3.62    3026.2  T
  11    -32.0723426 -0.348166E-12  0.193E-06    3.62   10162.3  T
     SCC iter.                  ...        0 min,  0.074 sec
     gradient                   ...        0 min,  0.002 sec
 * total energy  :   -31.5537057 Eh     change       -0.2426360E-03 Eh
   gradient norm :     0.0064357 Eh/α   predicted    -0.1710691E-03 ( -29.50%)
   displ. norm   :     0.3422607 α      lambda       -0.3399096E-03
   maximum displ.:     0.3039444 α      in ANC's #2, #4, #5, ...
 * RMSD in coord.:     0.9560574 α      energy gain  -0.1837162E-01 Eh

generating ANC from model Hessian ...
Using Lindh-Hessian (1995)
 Shifting diagonal of input Hessian by   9.300290426435804E-003
 Lowest  eigenvalues of input Hessian
    0.000000    0.000000    0.000000    0.000000    0.000000    0.000000
    0.010000    0.010663    0.010966    0.011272    0.012499    0.012788
    0.015960    0.017598    0.018193    0.019677    0.022558    0.024674
 Highest eigenvalues
    1.368985    1.554795    1.582480    1.885743    1.993080    2.011111
 

........................................................................
.............................. CYCLE   21 ..............................
........................................................................

 iter      E             dE          RMSdq      gap      omega  full diag
   1    -32.0780306 -0.320780E+02  0.145E-01    3.64       0.0  T
   2    -32.0780322 -0.162608E-05  0.842E-02    3.64       1.0  T
   3    -32.0780318  0.437393E-06  0.917E-03    3.64       2.1  T
   4    -32.0780326 -0.822772E-06  0.226E-03    3.64       8.7  T
   5    -32.0780326 -0.129854E-07  0.113E-03    3.64      17.3  T
   6    -32.0780327 -0.138150E-07  0.551E-04    3.64      35.6  T
   7    -32.0780327 -0.105982E-08  0.185E-04    3.64     106.1  T
   8    -32.0780327 -0.438547E-09  0.531E-05    3.64     369.4  T
   9    -32.0780327 -0.138414E-10  0.204E-05    3.64     959.1  T
  10    -32.0780327 -0.220979E-11  0.100E-05    3.64    1955.1  T
  11    -32.0780327 -0.117950E-11  0.268E-06    3.64    7323.1  T
  12    -32.0780327  0.000000E+00  0.138E-06    3.64   14237.0  T
     SCC iter.                  ...        0 min,  0.079 sec
     gradient                   ...        0 min,  0.002 sec
 * total energy  :   -31.5539105 Eh     change       -0.2047576E-03 Eh
   gradient norm :     0.0056063 Eh/α   predicted     0.0000000E+00 (-100.00%)
   displ. norm   :     0.0644325 α      lambda       -0.1227830E-03
   maximum displ.:     0.0478375 α      in ANC's #1, #6, #5, ...

........................................................................
.............................. CYCLE   22 ..............................
........................................................................

 iter      E             dE          RMSdq      gap      omega  full diag
   1    -32.0755850 -0.320756E+02  0.298E-02    3.62       0.0  T
   2    -32.0755854 -0.476905E-06  0.171E-02    3.63       1.1  T
   3    -32.0755854  0.247066E-07  0.470E-03    3.62       4.2  T
   4    -32.0755855 -0.845441E-07  0.117E-03    3.62      16.7  T
   5    -32.0755855 -0.123320E-08  0.647E-04    3.62      30.3  T
   6    -32.0755855 -0.628595E-08  0.226E-04    3.62      86.7  T
   7    -32.0755855 -0.187583E-09  0.107E-04    3.62     182.8  T
   8    -32.0755855 -0.607656E-10  0.275E-05    3.62     714.2  T
   9    -32.0755855 -0.681410E-11  0.104E-05    3.62    1894.8  T
  10    -32.0755855 -0.476064E-12  0.393E-06    3.62    4985.7  T
  11    -32.0755855 -0.177636E-12  0.174E-06    3.62   11250.9  T
     SCC iter.                  ...        0 min,  0.078 sec
     gradient                   ...        0 min,  0.002 sec
 * total energy  :   -31.5539993 Eh     change       -0.8878156E-04 Eh
   gradient norm :     0.0018583 Eh/α   predicted    -0.6198491E-04 ( -30.18%)
   displ. norm   :     0.1520715 α      lambda       -0.7893891E-04
   maximum displ.:     0.1184072 α      in ANC's #1, #6, #11, ...

........................................................................
.............................. CYCLE   23 ..............................
........................................................................

 iter      E             dE          RMSdq      gap      omega  full diag
   1    -32.0729720 -0.320730E+02  0.536E-02    3.62       0.0  T
   2    -32.0729729 -0.857464E-06  0.310E-02    3.62       1.0  T
   3    -32.0729729  0.190030E-07  0.537E-03    3.62       3.7  T
   4    -32.0729730 -0.945324E-07  0.182E-03    3.62      10.8  T
   5    -32.0729730 -0.277642E-07  0.733E-04    3.62      26.7  T
   6    -32.0729730 -0.751556E-08  0.304E-04    3.62      64.5  T
   7    -32.0729730 -0.573849E-09  0.111E-04    3.62     176.0  T
   8    -32.0729730 -0.347171E-10  0.347E-05    3.62     565.5  T
   9    -32.0729730 -0.943601E-11  0.171E-05    3.62    1145.0  T
  10    -32.0729730 -0.214584E-11  0.517E-06    3.62    3795.6  T
  11    -32.0729730 -0.127898E-12  0.235E-06    3.62    8362.5  T
     SCC iter.                  ...        0 min,  0.087 sec
     gradient                   ...        0 min,  0.003 sec
 * total energy  :   -31.5540647 Eh     change       -0.6540410E-04 Eh
   gradient norm :     0.0035921 Eh/α   predicted    -0.3991353E-04 ( -38.97%)
   displ. norm   :     0.0611225 α      lambda       -0.3883085E-04
   maximum displ.:     0.0503200 α      in ANC's #1, #6, #9, ...

........................................................................
.............................. CYCLE   24 ..............................
........................................................................

 iter      E             dE          RMSdq      gap      omega  full diag
   1    -32.0735337 -0.320735E+02  0.227E-02    3.62       0.0  T
   2    -32.0735338 -0.962838E-07  0.130E-02    3.62       1.5  T
   3    -32.0735338  0.893046E-08  0.175E-03    3.62      11.2  T
   4    -32.0735338 -0.112826E-07  0.911E-04    3.62      21.5  T
   5    -32.0735338 -0.160506E-07  0.169E-04    3.62     115.8  T
   6    -32.0735338 -0.236348E-09  0.761E-05    3.62     257.8  T
   7    -32.0735338 -0.254374E-11  0.247E-05    3.62     794.1  T
   8    -32.0735338 -0.577671E-11  0.110E-05    3.62    1784.7  T
   9    -32.0735338 -0.130740E-11  0.371E-06    3.62    5293.2  T
  10    -32.0735338 -0.191847E-12  0.179E-06    3.62   10944.6  T
     SCC iter.                  ...        0 min,  0.091 sec
     gradient                   ...        0 min,  0.002 sec
 * total energy  :   -31.5540996 Eh     change       -0.3488818E-04 Eh
   gradient norm :     0.0029062 Eh/α   predicted    -0.1949304E-04 ( -44.13%)
   displ. norm   :     0.1168518 α      lambda       -0.7608738E-04
   maximum displ.:     0.0940228 α      in ANC's #1, #6, #9, ...

........................................................................
.............................. CYCLE   25 ..............................
........................................................................

 iter      E             dE          RMSdq      gap      omega  full diag
   1    -32.0750785 -0.320751E+02  0.411E-02    3.63       0.0  T
   2    -32.0750786 -0.152893E-06  0.242E-02    3.63       1.0  T
   3    -32.0750786  0.440964E-07  0.258E-03    3.63       7.6  T
   4    -32.0750787 -0.813392E-07  0.742E-04    3.63      26.4  T
   5    -32.0750787 -0.308854E-08  0.356E-04    3.63      55.1  T
   6    -32.0750787 -0.159996E-08  0.171E-04    3.63     114.6  T
   7    -32.0750787 -0.105381E-09  0.506E-05    3.63     387.5  T
   8    -32.0750787 -0.242508E-10  0.188E-05    3.63    1042.8  T
   9    -32.0750787 -0.210321E-11  0.709E-06    3.63    2767.3  T
  10    -32.0750787 -0.461853E-12  0.347E-06    3.63    5644.8  T
     SCC iter.                  ...        0 min,  0.086 sec
     gradient                   ...        0 min,  0.005 sec
 * total energy  :   -31.5541603 Eh     change       -0.6071189E-04 Eh
   gradient norm :     0.0008873 Eh/α   predicted    -0.3856796E-04 ( -36.47%)
   displ. norm   :     0.2067780 α      lambda       -0.5721451E-04
   maximum displ.:     0.1701186 α      in ANC's #1, #9, #6, ...

........................................................................
.............................. CYCLE   26 ..............................
........................................................................

 iter      E             dE          RMSdq      gap      omega  full diag
   1    -32.0760741 -0.320761E+02  0.721E-02    3.62       0.0  T
   2    -32.0760743 -0.269638E-06  0.428E-02    3.62       1.0  T
   3    -32.0760742  0.129648E-06  0.405E-03    3.62       4.8  T
   4    -32.0760744 -0.221673E-06  0.100E-03    3.62      19.5  T
   5    -32.0760744 -0.278487E-08  0.520E-04    3.62      37.7  T
   6    -32.0760744 -0.386155E-08  0.199E-04    3.62      98.8  T
   7    -32.0760744 -0.150706E-09  0.582E-05    3.62     337.3  T
   8    -32.0760744 -0.348095E-10  0.239E-05    3.62     819.2  T
   9    -32.0760744 -0.436273E-11  0.936E-06    3.62    2096.4  T
  10    -32.0760744 -0.348166E-12  0.392E-06    3.62    5001.1  T
     SCC iter.                  ...        0 min,  0.079 sec
     gradient                   ...        0 min,  0.002 sec
 * total energy  :   -31.5542240 Eh     change       -0.6369900E-04 Eh
   gradient norm :     0.0024826 Eh/α   predicted    -0.2915414E-04 ( -54.23%)
   displ. norm   :     0.0835434 α      lambda       -0.3207454E-04
   maximum displ.:     0.0725323 α      in ANC's #1, #9, #10, ...

........................................................................
.............................. CYCLE   27 ..............................
........................................................................

 iter      E             dE          RMSdq      gap      omega  full diag
   1    -32.0760738 -0.320761E+02  0.301E-02    3.62       0.0  T
   2    -32.0760738 -0.591343E-07  0.177E-02    3.62       1.1  T
   3    -32.0760738  0.204695E-07  0.172E-03    3.62      11.4  T
   4    -32.0760739 -0.347257E-07  0.546E-04    3.62      35.9  T
   5    -32.0760739 -0.252074E-08  0.213E-04    3.62      92.0  T
   6    -32.0760739 -0.506738E-09  0.960E-05    3.62     204.3  T
   7    -32.0760739 -0.536886E-10  0.254E-05    3.62     772.4  T
   8    -32.0760739 -0.354561E-11  0.771E-06    3.62    2542.1  T
   9    -32.0760739 -0.405009E-12  0.362E-06    3.62    5422.6  T
     SCC iter.                  ...        0 min,  0.073 sec
     gradient                   ...        0 min,  0.002 sec
 * total energy  :   -31.5542541 Eh     change       -0.3008795E-04 Eh
   gradient norm :     0.0020826 Eh/α   predicted    -0.1616958E-04 ( -46.26%)
   displ. norm   :     0.0852298 α      lambda       -0.3771175E-04
   maximum displ.:     0.0737049 α      in ANC's #1, #5, #10, ...

........................................................................
.............................. CYCLE   28 ..............................
........................................................................

 iter      E             dE          RMSdq      gap      omega  full diag
   1    -32.0758557 -0.320759E+02  0.315E-02    3.62       0.0  T
   2    -32.0758558 -0.112702E-06  0.183E-02    3.62       1.1  T
   3    -32.0758558  0.315503E-07  0.231E-03    3.62       8.5  T
   4    -32.0758558 -0.483560E-07  0.776E-04    3.62      25.3  T
   5    -32.0758558 -0.653667E-08  0.282E-04    3.62      69.6  T
   6    -32.0758558 -0.915776E-09  0.133E-04    3.62     147.8  T
   7    -32.0758558 -0.669971E-10  0.406E-05    3.62     483.5  T
   8    -32.0758558 -0.930811E-11  0.160E-05    3.62    1227.1  T
   9    -32.0758558 -0.298428E-11  0.562E-06    3.62    3488.8  T
  10    -32.0758558 -0.127898E-12  0.184E-06    3.62   10630.1  T
     SCC iter.                  ...        0 min,  0.073 sec
     gradient                   ...        0 min,  0.002 sec
 * total energy  :   -31.5542880 Eh     change       -0.3398213E-04 Eh
   gradient norm :     0.0010045 Eh/α   predicted    -0.1899324E-04 ( -44.11%)
   displ. norm   :     0.1485470 α      lambda       -0.3753158E-04
   maximum displ.:     0.1262622 α      in ANC's #1, #5, #10, ...

........................................................................
.............................. CYCLE   29 ..............................
........................................................................

 iter      E             dE          RMSdq      gap      omega  full diag
   1    -32.0750649 -0.320751E+02  0.538E-02    3.62       0.0  T
   2    -32.0750653 -0.363872E-06  0.312E-02    3.62       1.0  T
   3    -32.0750652  0.855102E-07  0.405E-03    3.62       4.8  T
   4    -32.0750653 -0.129721E-06  0.142E-03    3.62      13.8  T
   5    -32.0750653 -0.247764E-07  0.495E-04    3.62      39.6  T
   6    -32.0750653 -0.344728E-08  0.221E-04    3.62      88.8  T
   7    -32.0750653 -0.738183E-10  0.615E-05    3.62     318.7  T
   8    -32.0750653 -0.354206E-10  0.267E-05    3.62     734.8  T
   9    -32.0750653 -0.795097E-11  0.865E-06    3.62    2266.3  T
  10    -32.0750653 -0.682121E-12  0.340E-06    3.62    5768.6  T
     SCC iter.                  ...        0 min,  0.073 sec
     gradient                   ...        0 min,  0.002 sec
 * total energy  :   -31.5543341 Eh     change       -0.4602173E-04 Eh
   gradient norm :     0.0013748 Eh/α   predicted    -0.1895057E-04 ( -58.82%)
   displ. norm   :     0.1087608 α      lambda       -0.2254041E-04
   maximum displ.:     0.0940703 α      in ANC's #1, #5, #2, ...

........................................................................
.............................. CYCLE   30 ..............................
........................................................................

 iter      E             dE          RMSdq      gap      omega  full diag
   1    -32.0748867 -0.320749E+02  0.396E-02    3.62       0.0  T
   2    -32.0748868 -0.137961E-06  0.232E-02    3.62       1.0  T
   3    -32.0748867  0.956230E-07  0.290E-03    3.62       6.8  T
   4    -32.0748868 -0.115928E-06  0.960E-04    3.62      20.4  T
   5    -32.0748869 -0.152248E-07  0.358E-04    3.62      54.8  T
   6    -32.0748869 -0.178967E-08  0.144E-04    3.62     135.9  T
   7    -32.0748869 -0.527933E-11  0.421E-05    3.62     466.2  T
   8    -32.0748869 -0.269935E-10  0.163E-05    3.62    1202.6  T
   9    -32.0748869 -0.299849E-11  0.594E-06    3.62    3300.3  T
  10    -32.0748869 -0.163425E-12  0.158E-06    3.62   12398.6  T
     SCC iter.                  ...        0 min,  0.073 sec
     gradient                   ...        0 min,  0.002 sec
 * total energy  :   -31.5543654 Eh     change       -0.3128680E-04 Eh
   gradient norm :     0.0018414 Eh/α   predicted    -0.1132984E-04 ( -63.79%)
   displ. norm   :     0.0955676 α      lambda       -0.2275677E-04
   maximum displ.:     0.0814159 α      in ANC's #1, #5, #2, ...

........................................................................
.............................. CYCLE   31 ..............................
........................................................................

 iter      E             dE          RMSdq      gap      omega  full diag
   1    -32.0750283 -0.320750E+02  0.343E-02    3.62       0.0  T
   2    -32.0750284 -0.783852E-07  0.202E-02    3.62       1.0  T
   3    -32.0750283  0.644721E-07  0.224E-03    3.62       8.7  T
   4    -32.0750284 -0.802742E-07  0.716E-04    3.62      27.4  T
   5    -32.0750284 -0.808134E-08  0.287E-04    3.62      68.4  T
   6    -32.0750284 -0.967688E-09  0.119E-04    3.62     165.1  T
   7    -32.0750284 -0.878941E-11  0.315E-05    3.62     622.5  T
   8    -32.0750284 -0.196749E-10  0.121E-05    3.62    1615.7  T
   9    -32.0750284 -0.127187E-11  0.479E-06    3.62    4091.3  T
  10    -32.0750284 -0.163425E-12  0.145E-06    3.62   13566.1  T
     SCC iter.                  ...        0 min,  0.073 sec
     gradient                   ...        0 min,  0.002 sec
 * total energy  :   -31.5543983 Eh     change       -0.3294728E-04 Eh
   gradient norm :     0.0015470 Eh/α   predicted    -0.1142723E-04 ( -65.32%)
   displ. norm   :     0.1306361 α      lambda       -0.3381264E-04
   maximum displ.:     0.1081428 α      in ANC's #1, #2, #5, ...

........................................................................
.............................. CYCLE   32 ..............................
........................................................................

 iter      E             dE          RMSdq      gap      omega  full diag
   1    -32.0753162 -0.320753E+02  0.480E-02    3.62       0.0  T
   2    -32.0753163 -0.132957E-06  0.283E-02    3.62       1.0  T
   3    -32.0753161  0.158257E-06  0.337E-03    3.62       5.8  T
   4    -32.0753163 -0.195575E-06  0.907E-04    3.62      21.6  T
   5    -32.0753163 -0.104935E-07  0.385E-04    3.62      51.0  T
   6    -32.0753163 -0.178751E-08  0.158E-04    3.62     124.4  T
   7    -32.0753163 -0.253237E-10  0.441E-05    3.62     445.2  T
   8    -32.0753163 -0.441176E-10  0.135E-05    3.62    1448.3  T
   9    -32.0753163 -0.104450E-11  0.531E-06    3.62    3695.9  T
  10    -32.0753163 -0.163425E-12  0.204E-06    3.62    9603.8  T
     SCC iter.                  ...        0 min,  0.073 sec
     gradient                   ...        0 min,  0.002 sec
 * total energy  :   -31.5544461 Eh     change       -0.4779234E-04 Eh
   gradient norm :     0.0009623 Eh/α   predicted    -0.1703484E-04 ( -64.36%)
   displ. norm   :     0.1886318 α      lambda       -0.4565864E-04
   maximum displ.:     0.1535506 α      in ANC's #1, #2, #5, ...

........................................................................
.............................. CYCLE   33 ..............................
........................................................................

 iter      E             dE          RMSdq      gap      omega  full diag
   1    -32.0753299 -0.320753E+02  0.697E-02    3.62       0.0  T
   2    -32.0753301 -0.269666E-06  0.411E-02    3.62       1.0  T
   3    -32.0753299  0.185374E-06  0.415E-03    3.62       4.7  T
   4    -32.0753302 -0.251773E-06  0.125E-03    3.62      15.7  T
   5    -32.0753302 -0.172129E-07  0.572E-04    3.62      34.3  T
   6    -32.0753302 -0.382062E-08  0.253E-04    3.62      77.6  T
   7    -32.0753302 -0.868212E-10  0.603E-05    3.62     325.5  T
   8    -32.0753302 -0.803553E-10  0.194E-05    3.62    1009.6  T
   9    -32.0753302 -0.363798E-11  0.934E-06    3.62    2099.0  T
  10    -32.0753302 -0.341061E-12  0.276E-06    3.62    7100.3  T
     SCC iter.                  ...        0 min,  0.074 sec
     gradient                   ...        0 min,  0.002 sec
 * total energy  :   -31.5545089 Eh     change       -0.6283893E-04 Eh
   gradient norm :     0.0007201 Eh/α   predicted    -0.2319538E-04 ( -63.09%)
   displ. norm   :     0.2162564 α      lambda       -0.4593812E-04
   maximum displ.:     0.1766498 α      in ANC's #1, #2, #5, ...

........................................................................
.............................. CYCLE   34 ..............................
........................................................................

 iter      E             dE          RMSdq      gap      omega  full diag
   1    -32.0752890 -0.320753E+02  0.814E-02    3.62       0.0  T
   2    -32.0752894 -0.391831E-06  0.480E-02    3.62       1.0  T
   3    -32.0752891  0.292441E-06  0.519E-03    3.62       3.8  T
   4    -32.0752895 -0.385943E-06  0.146E-03    3.62      13.5  T
   5    -32.0752895 -0.242504E-07  0.657E-04    3.62      29.8  T
   6    -32.0752895 -0.576784E-08  0.290E-04    3.62      67.7  T
   7    -32.0752895 -0.119577E-09  0.710E-05    3.62     276.4  T
   8    -32.0752895 -0.108123E-09  0.212E-05    3.62     923.8  T
   9    -32.0752895 -0.447642E-11  0.101E-05    3.62    1932.6  T
  10    -32.0752895 -0.341061E-12  0.328E-06    3.62    5982.7  T
  11    -32.0752895 -0.135003E-12  0.111E-06    3.62   17735.3  T
     SCC iter.                  ...        0 min,  0.074 sec
     gradient                   ...        0 min,  0.002 sec
 * total energy  :   -31.5545717 Eh     change       -0.6277934E-04 Eh
   gradient norm :     0.0010953 Eh/α   predicted    -0.2344920E-04 ( -62.65%)
   displ. norm   :     0.1976051 α      lambda       -0.3811091E-04
   maximum displ.:     0.1650277 α      in ANC's #1, #2, #5, ...

........................................................................
.............................. CYCLE   35 ..............................
........................................................................

 iter      E             dE          RMSdq      gap      omega  full diag
   1    -32.0752991 -0.320753E+02  0.756E-02    3.62       0.0  T
   2    -32.0752994 -0.391894E-06  0.445E-02    3.62       1.0  T
   3    -32.0752992  0.208798E-06  0.473E-03    3.62       4.1  T
   4    -32.0752995 -0.286888E-06  0.148E-03    3.62      13.3  T
   5    -32.0752996 -0.257605E-07  0.612E-04    3.62      32.0  T
   6    -32.0752996 -0.556824E-08  0.269E-04    3.62      72.9  T
   7    -32.0752996 -0.506120E-10  0.601E-05    3.62     326.5  T
   8    -32.0752996 -0.892939E-10  0.186E-05    3.62    1053.2  T
   9    -32.0752996 -0.156319E-11  0.847E-06    3.62    2314.4  T
  10    -32.0752996 -0.454747E-12  0.241E-06    3.62    8137.8  T
     SCC iter.                  ...        0 min,  0.073 sec
     gradient                   ...        0 min,  0.002 sec
 * total energy  :   -31.5546248 Eh     change       -0.5307019E-04 Eh
   gradient norm :     0.0011067 Eh/α   predicted    -0.1938898E-04 ( -63.47%)
   displ. norm   :     0.1750831 α      lambda       -0.3348488E-04
   maximum displ.:     0.1506351 α      in ANC's #1, #5, #2, ...

........................................................................
.............................. CYCLE   36 ..............................
........................................................................

 iter      E             dE          RMSdq      gap      omega  full diag
   1    -32.0754348 -0.320754E+02  0.689E-02    3.62       0.0  T
   2    -32.0754351 -0.308867E-06  0.405E-02    3.62       1.0  T
   3    -32.0754349  0.168344E-06  0.418E-03    3.62       4.7  T
   4    -32.0754352 -0.232423E-06  0.122E-03    3.62      16.1  T
   5    -32.0754352 -0.177219E-07  0.506E-04    3.62      38.8  T
   6    -32.0754352 -0.390712E-08  0.220E-04    3.62      89.3  T
   7    -32.0754352 -0.323013E-10  0.505E-05    3.62     388.2  T
   8    -32.0754352 -0.550173E-10  0.172E-05    3.62    1139.8  T
   9    -32.0754352 -0.188294E-11  0.791E-06    3.62    2478.7  T
  10    -32.0754352 -0.312639E-12  0.313E-06    3.62    6267.2  T
     SCC iter.                  ...        0 min,  0.073 sec
     gradient                   ...        0 min,  0.002 sec
 * total energy  :   -31.5546721 Eh     change       -0.4729931E-04 Eh
   gradient norm :     0.0009529 Eh/α   predicted    -0.1697394E-04 ( -64.11%)
   displ. norm   :     0.1691308 α      lambda       -0.3329711E-04
   maximum displ.:     0.1494747 α      in ANC's #1, #5, #2, ...

........................................................................
.............................. CYCLE   37 ..............................
........................................................................

 iter      E             dE          RMSdq      gap      omega  full diag
   1    -32.0756746 -0.320757E+02  0.668E-02    3.62       0.0  T
   2    -32.0756749 -0.303320E-06  0.392E-02    3.62       1.0  T
   3    -32.0756748  0.177579E-06  0.433E-03    3.62       4.5  T
   4    -32.0756750 -0.246737E-06  0.122E-03    3.62      16.1  T
   5    -32.0756750 -0.164919E-07  0.532E-04    3.62      36.9  T
   6    -32.0756750 -0.430992E-08  0.227E-04    3.62      86.5  T
   7    -32.0756750 -0.499156E-10  0.537E-05    3.62     365.0  T
   8    -32.0756750 -0.503491E-10  0.200E-05    3.62     981.2  T
   9    -32.0756750 -0.389377E-11  0.737E-06    3.62    2662.5  T
  10    -32.0756750 -0.362377E-12  0.270E-06    3.62    7259.5  T
     SCC iter.                  ...        0 min,  0.073 sec
     gradient                   ...        0 min,  0.002 sec
 * total energy  :   -31.5547201 Eh     change       -0.4797335E-04 Eh
   gradient norm :     0.0005958 Eh/α   predicted    -0.1686284E-04 ( -64.85%)
   displ. norm   :     0.1766524 α      lambda       -0.3491281E-04
   maximum displ.:     0.1585562 α      in ANC's #1, #5, #4, ...

........................................................................
.............................. CYCLE   38 ..............................
........................................................................

 iter      E             dE          RMSdq      gap      omega  full diag
   1    -32.0756510 -0.320757E+02  0.699E-02    3.62       0.0  T
   2    -32.0756513 -0.338927E-06  0.411E-02    3.62       1.0  T
   3    -32.0756511  0.169376E-06  0.418E-03    3.62       4.7  T
   4    -32.0756514 -0.233534E-06  0.137E-03    3.62      14.3  T
   5    -32.0756514 -0.255480E-07  0.494E-04    3.62      39.7  T
   6    -32.0756514 -0.375706E-08  0.215E-04    3.62      91.2  T
   7    -32.0756514 -0.173657E-10  0.506E-05    3.62     387.6  T
   8    -32.0756514 -0.570139E-10  0.183E-05    3.62    1068.8  T
   9    -32.0756514 -0.224532E-11  0.762E-06    3.62    2575.3  T
  10    -32.0756514 -0.220268E-12  0.229E-06    3.62    8557.9  T
     SCC iter.                  ...        0 min,  0.074 sec
     gradient                   ...        0 min,  0.002 sec
 * total energy  :   -31.5547714 Eh     change       -0.5137678E-04 Eh
   gradient norm :     0.0007314 Eh/α   predicted    -0.1770206E-04 ( -65.54%)
   displ. norm   :     0.2001546 α      lambda       -0.4077426E-04
   maximum displ.:     0.1823073 α      in ANC's #1, #5, #4, ...

........................................................................
.............................. CYCLE   39 ..............................
........................................................................

 iter      E             dE          RMSdq      gap      omega  full diag
   1    -32.0756598 -0.320757E+02  0.785E-02    3.62       0.0  T
   2    -32.0756601 -0.391377E-06  0.462E-02    3.62       1.0  T
   3    -32.0756599  0.226546E-06  0.487E-03    3.62       4.0  T
   4    -32.0756602 -0.318412E-06  0.134E-03    3.62      14.7  T
   5    -32.0756603 -0.218855E-07  0.588E-04    3.62      33.3  T
   6    -32.0756603 -0.519019E-08  0.255E-04    3.62      77.1  T
   7    -32.0756603 -0.904166E-10  0.639E-05    3.62     306.9  T
   8    -32.0756603 -0.568861E-10  0.259E-05    3.62     756.5  T
   9    -32.0756603 -0.695621E-11  0.105E-05    3.62    1860.6  T
  10    -32.0756603 -0.405009E-12  0.332E-06    3.62    5903.2  T
  11    -32.0756603 -0.923706E-13  0.907E-07    3.62   21620.9  T
     SCC iter.                  ...        0 min,  0.073 sec
     gradient                   ...        0 min,  0.002 sec
 * total energy  :   -31.5548313 Eh     change       -0.5988509E-04 Eh
   gradient norm :     0.0007493 Eh/α   predicted    -0.2075183E-04 ( -65.35%)
   displ. norm   :     0.2572012 α      lambda       -0.5223899E-04
   maximum displ.:     0.2350798 α      in ANC's #1, #5, #4, ...

........................................................................
.............................. CYCLE   40 ..............................
........................................................................

 iter      E             dE          RMSdq      gap      omega  full diag
   1    -32.0753524 -0.320754E+02  0.997E-02    3.62       0.0  T
   2    -32.0753531 -0.629054E-06  0.586E-02    3.62       1.0  T
   3    -32.0753527  0.415772E-06  0.591E-03    3.62       3.3  T
   4    -32.0753532 -0.554284E-06  0.190E-03    3.62      10.3  T
   5    -32.0753533 -0.533473E-07  0.675E-04    3.62      29.1  T
   6    -32.0753533 -0.611207E-08  0.296E-04    3.62      66.4  T
   7    -32.0753533 -0.204636E-10  0.746E-05    3.62     262.9  T
   8    -32.0753533 -0.124977E-09  0.271E-05    3.62     724.4  T
   9    -32.0753533 -0.489564E-11  0.120E-05    3.62    1627.6  T
  10    -32.0753533 -0.518696E-12  0.335E-06    3.62    5847.4  T
  11    -32.0753533 -0.710543E-13  0.117E-06    3.62   16746.0  T
     SCC iter.                  ...        0 min,  0.074 sec
     gradient                   ...        0 min,  0.002 sec
 * total energy  :   -31.5549071 Eh     change       -0.7576224E-04 Eh
   gradient norm :     0.0011805 Eh/α   predicted    -0.2689062E-04 ( -64.51%)
   displ. norm   :     0.4973106 α      lambda       -0.9957846E-04
   maximum displ.:     0.4598668 α      in ANC's #1, #5, #4, ...

........................................................................
.............................. CYCLE   41 ..............................
........................................................................

 iter      E             dE          RMSdq      gap      omega  full diag
   1    -32.0739184 -0.320739E+02  0.192E-01    3.61       0.0  T
   2    -32.0739209 -0.243376E-05  0.113E-01    3.61       1.0  T
   3    -32.0739195  0.140273E-05  0.114E-02    3.61       1.7  T
   4    -32.0739214 -0.190979E-05  0.364E-03    3.61       5.4  T
   5    -32.0739216 -0.197786E-06  0.138E-03    3.61      14.3  T
   6    -32.0739216 -0.276914E-07  0.600E-04    3.61      32.7  T
   7    -32.0739216 -0.394309E-09  0.164E-04    3.61     119.7  T
   8    -32.0739216 -0.390834E-09  0.687E-05    3.61     285.3  T
   9    -32.0739216 -0.458726E-10  0.278E-05    3.61     705.2  T
  10    -32.0739216 -0.260769E-11  0.698E-06    3.61    2809.8  T
  11    -32.0739216 -0.547118E-12  0.252E-06    3.61    7786.9  T
     SCC iter.                  ...        0 min,  0.073 sec
     gradient                   ...        0 min,  0.002 sec
 * total energy  :   -31.5550404 Eh     change       -0.1333270E-03 Eh
   gradient norm :     0.0026764 Eh/α   predicted    -0.5526272E-04 ( -58.55%)
   displ. norm   :     0.6575357 α      lambda       -0.1726945E-03
   maximum displ.:     0.6097533 α      in ANC's #1, #5, #3, ...

........................................................................
.............................. CYCLE   42 ..............................
........................................................................

 iter      E             dE          RMSdq      gap      omega  full diag
   1    -32.0699346 -0.320699E+02  0.251E-01    3.59       0.0  T
   2    -32.0699386 -0.400510E-05  0.147E-01    3.59       1.0  T
   3    -32.0699361  0.250846E-05  0.143E-02    3.59       1.4  T
   4    -32.0699395 -0.339796E-05  0.480E-03    3.59       4.1  T
   5    -32.0699398 -0.351187E-06  0.168E-03    3.59      11.7  T
   6    -32.0699399 -0.371754E-07  0.756E-04    3.59      25.9  T
   7    -32.0699399 -0.450569E-09  0.200E-04    3.59      98.0  T
   8    -32.0699399 -0.744095E-09  0.779E-05    3.59     251.7  T
   9    -32.0699399 -0.482672E-10  0.344E-05    3.59     570.9  T
  10    -32.0699399 -0.419931E-11  0.106E-05    3.59    1856.3  T
  11    -32.0699399 -0.129319E-11  0.393E-06    3.59    4995.7  T
  12    -32.0699399 -0.497380E-13  0.140E-06    3.59   14057.0  T
     SCC iter.                  ...        0 min,  0.074 sec
     gradient                   ...        0 min,  0.002 sec
 * total energy  :   -31.5551387 Eh     change       -0.9832306E-04 Eh
   gradient norm :     0.0070898 Eh/α   predicted    -0.1236828E-03 (  25.79%)
   displ. norm   :     0.1373992 α      lambda       -0.1079149E-03
   maximum displ.:     0.1291884 α      in ANC's #1, #44, #38, ...
 * RMSD in coord.:     0.7602741 α      energy gain  -0.1432996E-02 Eh

generating ANC from model Hessian ...
Using Lindh-Hessian (1995)
 Shifting diagonal of input Hessian by   9.355130566451479E-003
 Lowest  eigenvalues of input Hessian
    0.000000    0.000000    0.000000    0.000000    0.000000    0.000000
    0.010000    0.010648    0.011163    0.011253    0.012230    0.013133
    0.015433    0.017721    0.018278    0.019677    0.024294    0.024385
 Highest eigenvalues
    1.356265    1.546634    1.566109    1.870243    1.975954    1.996538
 

........................................................................
.............................. CYCLE   43 ..............................
........................................................................

 iter      E             dE          RMSdq      gap      omega  full diag
   1    -32.0732338 -0.320732E+02  0.519E-02    3.60       0.0  T
   2    -32.0732347 -0.974094E-06  0.305E-02    3.60       1.0  T
   3    -32.0732345  0.228515E-06  0.666E-03    3.60       2.9  T
   4    -32.0732348 -0.329300E-06  0.177E-03    3.60      11.1  T
   5    -32.0732349 -0.310284E-07  0.905E-04    3.60      21.7  T
   6    -32.0732349 -0.113940E-07  0.354E-04    3.60      55.4  T
   7    -32.0732349 -0.751051E-09  0.137E-04    3.60     142.9  T
   8    -32.0732349 -0.270575E-10  0.510E-05    3.60     384.4  T
   9    -32.0732349 -0.220695E-10  0.242E-05    3.60     810.8  T
  10    -32.0732349 -0.603961E-12  0.586E-06    3.60    3344.0  T
  11    -32.0732349 -0.547118E-12  0.192E-06    3.60   10233.7  T
     SCC iter.                  ...        0 min,  0.074 sec
     gradient                   ...        0 min,  0.002 sec
 * total energy  :   -31.5552112 Eh     change       -0.7249784E-04 Eh
   gradient norm :     0.0051092 Eh/α   predicted     0.0000000E+00 (-100.00%)
   displ. norm   :     0.0426977 α      lambda       -0.8930234E-04
   maximum displ.:     0.0244780 α      in ANC's #4, #1, #10, ...

........................................................................
.............................. CYCLE   44 ..............................
........................................................................

 iter      E             dE          RMSdq      gap      omega  full diag
   1    -32.0759085 -0.320759E+02  0.279E-02    3.61       0.0  T
   2    -32.0759089 -0.406351E-06  0.159E-02    3.61       1.2  T
   3    -32.0759088  0.580002E-07  0.367E-03    3.61       5.3  T
   4    -32.0759089 -0.888919E-07  0.165E-03    3.61      11.9  T
   5    -32.0759089 -0.332957E-07  0.387E-04    3.61      50.7  T
   6    -32.0759089 -0.815369E-09  0.182E-04    3.61     107.5  T
   7    -32.0759089 -0.168967E-09  0.794E-05    3.61     246.9  T
   8    -32.0759089 -0.336797E-10  0.237E-05    3.61     825.9  T
   9    -32.0759089 -0.294875E-11  0.109E-05    3.61    1803.0  T
  10    -32.0759089 -0.118661E-11  0.415E-06    3.61    4727.0  T
  11    -32.0759089 -0.568434E-13  0.230E-06    3.61    8518.7  T
     SCC iter.                  ...        0 min,  0.074 sec
     gradient                   ...        0 min,  0.002 sec
 * total energy  :   -31.5552680 Eh     change       -0.5676940E-04 Eh
   gradient norm :     0.0012310 Eh/α   predicted    -0.4481241E-04 ( -21.06%)
   displ. norm   :     0.0749050 α      lambda       -0.2566006E-04
   maximum displ.:     0.0512209 α      in ANC's #1, #4, #10, ...

........................................................................
.............................. CYCLE   45 ..............................
........................................................................

 iter      E             dE          RMSdq      gap      omega  full diag
   1    -32.0775251 -0.320775E+02  0.329E-02    3.63       0.0  T
   2    -32.0775253 -0.132700E-06  0.192E-02    3.63       1.0  T
   3    -32.0775252  0.417801E-07  0.222E-03    3.63       8.8  T
   4    -32.0775253 -0.651290E-07  0.924E-04    3.63      21.2  T
   5    -32.0775253 -0.954903E-08  0.253E-04    3.63      77.6  T
   6    -32.0775253 -0.120146E-09  0.135E-04    3.63     145.4  T
   7    -32.0775253 -0.164320E-09  0.507E-05    3.63     387.1  T
   8    -32.0775253 -0.515143E-11  0.977E-06    3.63    2008.1  T
   9    -32.0775253 -0.724754E-12  0.599E-06    3.63    3271.5  T
     SCC iter.                  ...        0 min,  0.073 sec
     gradient                   ...        0 min,  0.002 sec
 * total energy  :   -31.5552896 Eh     change       -0.2161668E-04 Eh
   gradient norm :     0.0016952 Eh/α   predicted    -0.1286247E-04 ( -40.50%)
   displ. norm   :     0.0756245 α      lambda       -0.1793081E-04
   maximum displ.:     0.0563801 α      in ANC's #1, #4, #10, ...

........................................................................
.............................. CYCLE   46 ..............................
........................................................................

 iter      E             dE          RMSdq      gap      omega  full diag
   1    -32.0774233 -0.320774E+02  0.333E-02    3.62       0.0  T
   2    -32.0774236 -0.223071E-06  0.193E-02    3.62       1.0  T
   3    -32.0774235  0.236939E-07  0.295E-03    3.62       6.6  T
   4    -32.0774236 -0.520498E-07  0.105E-03    3.62      18.7  T
   5    -32.0774236 -0.546251E-08  0.366E-04    3.62      53.6  T
   6    -32.0774236 -0.272810E-08  0.120E-04    3.62     162.8  T
   7    -32.0774236 -0.232419E-10  0.461E-05    3.62     425.8  T
   8    -32.0774236 -0.144098E-10  0.169E-05    3.62    1160.1  T
   9    -32.0774236 -0.203215E-11  0.616E-06    3.62    3184.2  T
  10    -32.0774236 -0.724754E-12  0.178E-06    3.62   11033.1  T
     SCC iter.                  ...        0 min,  0.076 sec
     gradient                   ...        0 min,  0.002 sec
 * total energy  :   -31.5553122 Eh     change       -0.2261806E-04 Eh
   gradient norm :     0.0016470 Eh/α   predicted    -0.8988518E-05 ( -60.26%)
   displ. norm   :     0.1288709 α      lambda       -0.2909667E-04
   maximum displ.:     0.0954736 α      in ANC's #1, #4, #10, ...

........................................................................
.............................. CYCLE   47 ..............................
[...]
         :: total charge              -0.000000000000 e     ::
         :::::::::::::::::::::::::::::::::::::::::::::::::::::

           ------------------------------------------------- 
          |                Numerical Hessian                |
           ------------------------------------------------- 
step length          :   0.00500
SCC accuracy         :   0.30000
Hessian scale factor :   1.00000
frozen atoms in %    :   0.00000    0
RMS gradient         :   0.00004
estimated CPU  time      1.13 min
estimated wall time      0.15 min

writing file <hessian>.

 projected vibrational frequencies (cm⁻¹)
eigval :       -0.00    -0.00    -0.00     0.00     0.00     0.00
eigval :       24.83    72.36    84.43   127.24   130.46   200.63
eigval :      204.70   228.81   262.55   277.61   283.53   358.31
eigval :      362.89   404.12   473.61   585.98   637.95   656.83
eigval :      683.15   704.32   729.80   746.36   790.99   870.65
eigval :      894.00   924.88   931.02   968.47   974.85   998.69
eigval :     1012.92  1021.93  1065.69  1073.36  1086.19  1115.64
eigval :     1123.72  1181.99  1203.71  1225.81  1227.52  1252.00
eigval :     1266.73  1282.83  1316.81  1408.68  1410.85  1421.65
eigval :     1451.21  1456.55  1462.12  1497.16  1501.20  1505.37
eigval :     1507.96  1577.20  1588.99  2938.65  2942.19  2948.75
eigval :     2961.40  3011.21  3013.08  3024.75  3024.86  3035.11
eigval :     3039.50  3061.35  3068.51  3075.03  3087.08  3093.94
           -------------------------------------------------
          |                Property Printout                |
           -------------------------------------------------

    * Orbital Energies and Occupations

         #    Occupation            Energy/Eh            Energy/eV
      -------------------------------------------------------------
         1        2.0000           -0.6587646             -17.9259
       ...           ...                  ...                  ...
        18        2.0000           -0.4769537             -12.9786
        19        2.0000           -0.4739004             -12.8955
        20        2.0000           -0.4691202             -12.7654
        21        2.0000           -0.4616990             -12.5635
        22        2.0000           -0.4526783             -12.3180
        23        2.0000           -0.4452522             -12.1159
        24        2.0000           -0.4394336             -11.9576
        25        2.0000           -0.4248216             -11.5600
        26        2.0000           -0.4141396             -11.2693
        27        2.0000           -0.4080732             -11.1042
        28        2.0000           -0.4026848             -10.9576
        29        2.0000           -0.4007910             -10.9061
        30        2.0000           -0.3633550              -9.8874 (HOMO)
        31                         -0.2298065              -6.2534 (LUMO)
        32                         -0.2214754              -6.0267
        33                         -0.1549836              -4.2173
        34                         -0.1495343              -4.0690
        35                         -0.0932655              -2.5379
        36                          0.0123003               0.3347
        37                          0.0426635               1.1609
        38                          0.1034128               2.8140
        39                          0.1127270               3.0675
        40                          0.1170062               3.1839
        41                          0.1313868               3.5752
       ...                                ...                  ...
        64                          0.7992651              21.7491
      -------------------------------------------------------------
                  HL-Gap            0.1335485 Eh            3.6340 eV
             Fermi-level           -0.2965807 Eh           -8.0704 eV

     #   Z          covCN         q      C6AA      α(0)
     1  15 P        3.014    -0.112   165.311    23.098
     2   6 C        3.748    -0.044    21.429     6.603
     3   1 H        0.926     0.042     2.428     2.437
     4   1 H        0.926     0.041     2.435     2.440
     5   6 C        3.780    -0.094    22.321     6.731
     6   1 H        0.925     0.038     2.481     2.463
     7   1 H        0.925     0.038     2.478     2.462
     8   1 H        0.925     0.032     2.561     2.503
     9   6 C        2.915     0.010    27.792     8.645
    10   6 C        2.964    -0.034    28.833     8.808
    11   6 C        3.015    -0.030    28.734     8.793
    12   6 C        2.919    -0.031    28.765     8.795
    13   6 C        2.918    -0.030    28.758     8.794
    14   6 C        2.920    -0.031    28.779     8.797
    15   1 H        0.926     0.033     2.550     2.497
    16   1 H        0.925     0.034     2.535     2.490
    17   1 H        0.926     0.028     2.617     2.530
    18   1 H        0.926     0.029     2.606     2.525
    19   1 H        0.926     0.028     2.612     2.527
    20   6 C        3.748    -0.045    21.450     6.606
    21   1 H        0.926     0.040     2.443     2.444
    22   1 H        0.925     0.047     2.364     2.404
    23   6 C        3.816    -0.097    22.334     6.726
    24   1 H        0.925     0.041     2.432     2.439
    25   1 H        0.925     0.037     2.487     2.466
    26   1 H        0.925     0.032     2.554     2.499

 Mol. C6AA /au·bohr⁶  :       7601.537597
 Mol. C8AA /au·bohr⁸  :     202609.277388
 Mol. α(0) /au        :        139.520990


Wiberg/Mayer (AO) data.
largest (>0.10) Wiberg bond orders for each atom

 ---------------------------------------------------------------------------
     #   Z sym  total        # sym  WBO       # sym  WBO       # sym  WBO
 ---------------------------------------------------------------------------
     1  15 P    3.379 --    20 C    1.026     9 C    1.020     2 C    1.015
     2   6 C    3.994 --     1 P    1.015     5 C    1.012     4 H    0.956
                             3 H    0.954
     3   1 H    0.998 --     2 C    0.954
     4   1 H    0.998 --     2 C    0.956
     5   6 C    3.997 --     2 C    1.012     7 H    0.984     8 H    0.983
                             6 H    0.983
     6   1 H    0.999 --     5 C    0.983
     7   1 H    0.999 --     5 C    0.984
     8   1 H    0.999 --     5 C    0.983
     9   6 C    3.981 --    10 C    1.401    11 C    1.389     1 P    1.020
                            14 C    0.105
    10   6 C    3.993 --    12 C    1.441     9 C    1.401    15 H    0.963
                            13 C    0.107
    11   6 C    3.992 --    13 C    1.456     9 C    1.389    16 H    0.962
                            12 C    0.109
    12   6 C    3.993 --    10 C    1.441    14 C    1.441    17 H    0.970
                            11 C    0.109
    13   6 C    3.992 --    11 C    1.456    14 C    1.428    18 H    0.970
                            10 C    0.107
    14   6 C    3.991 --    12 C    1.441    13 C    1.428    19 H    0.971
                             9 C    0.105
    15   1 H    0.999 --    10 C    0.963
    16   1 H    0.999 --    11 C    0.962
    17   1 H    0.999 --    12 C    0.970
    18   1 H    0.999 --    13 C    0.970
    19   1 H    0.999 --    14 C    0.971
    20   6 C    3.995 --     1 P    1.026    23 C    1.015    21 H    0.956
                            22 H    0.951
    21   1 H    0.998 --    20 C    0.956
    22   1 H    0.998 --    20 C    0.951
    23   6 C    3.996 --    20 C    1.015    26 H    0.984    24 H    0.984
                            25 H    0.984
    24   1 H    0.998 --    23 C    0.984
    25   1 H    0.999 --    23 C    0.984
    26   1 H    0.999 --    23 C    0.984
 ---------------------------------------------------------------------------

Topologies differ in total number of bonds
Writing topology from bond orders to xtbtopo.mol

molecular dipole:
                 x           y           z       tot (Debye)
 q only:       -0.067      -0.137      -0.318
   full:       -0.369      -0.208      -0.510       1.683
molecular quadrupole (traceless):
                xx          xy          yy          xz          yz          zz
 q only:       -2.892      -0.652      -0.271      -1.456       1.173       3.163
  q+dip:       -5.471      -0.878       2.138      -2.091       1.342       3.333
   full:       -6.295      -1.204       0.887      -1.252       1.448       5.409

           -------------------------------------------------
          |                Geometry Summary                 |
           -------------------------------------------------

      molecular mass/u    :      166.2002322
   center of mass at/Å    :        0.3772514       0.0981540      -3.0356918
  moments of inertia/u·Å² :        0.2870543E+03   0.8181807E+03   0.9336008E+03
rotational constants/cm⁻¹ :        0.5872628E-01   0.2060380E-01   0.1805658E-01

 * 23 selected distances

     #   Z          #   Z                                           value/Å
     2   6 C        3   1 H                                       1.0933699
     2   6 C        4   1 H                                       1.0935136
     2   6 C        5   6 C                                       1.5221803
     5   6 C        6   1 H                                       1.0887071
     5   6 C        7   1 H                                       1.0872065
     5   6 C        8   1 H                                       1.0891752
     9   6 C       10   6 C                                       1.3901806
     9   6 C       11   6 C                                       1.3938250
    10   6 C       12   6 C                                       1.3843461
    11   6 C       13   6 C                                       1.3811132
    12   6 C       14   6 C                                       1.3835890
    13   6 C       14   6 C                                       1.3854919
    10   6 C       15   1 H                                       1.0793054 (min)
    11   6 C       16   1 H                                       1.0813986
    12   6 C       17   1 H                                       1.0808464
    13   6 C       18   1 H                                       1.0806565
    14   6 C       19   1 H                                       1.0801390
    20   6 C       21   1 H                                       1.0939710
    20   6 C       22   1 H                                       1.0926291
    20   6 C       23   6 C                                       1.5232738 (max)
    23   6 C       24   1 H                                       1.0885208
    23   6 C       25   1 H                                       1.0876719
    23   6 C       26   1 H                                       1.0890477

 * 2 distinct bonds (by element types)

   Z      Z             #   av. dist./Å        max./Å        min./Å
   1 H    6 C          15     1.0870773     1.0939710     1.0793054
   6 C    6 C           8     1.4205000     1.5232738     1.3811132

           -------------------------------------------------
          |               Frequency Printout                |
           -------------------------------------------------
 projected vibrational frequencies (cm⁻¹)
eigval :       -0.00    -0.00    -0.00     0.00     0.00     0.00
eigval :       24.83    72.36    84.43   127.24   130.46   200.63
eigval :      204.70   228.81   262.55   277.61   283.53   358.31
eigval :      362.89   404.12   473.61   585.98   637.95   656.83
eigval :      683.15   704.32   729.80   746.36   790.99   870.65
eigval :      894.00   924.88   931.02   968.47   974.85   998.69
eigval :     1012.92  1021.93  1065.69  1073.36  1086.19  1115.64
eigval :     1123.72  1181.99  1203.71  1225.81  1227.52  1252.00
eigval :     1266.73  1282.83  1316.81  1408.68  1410.85  1421.65
eigval :     1451.21  1456.55  1462.12  1497.16  1501.20  1505.37
eigval :     1507.96  1577.20  1588.99  2938.65  2942.19  2948.75
eigval :     2961.40  3011.21  3013.08  3024.75  3024.86  3035.11
eigval :     3039.50  3061.35  3068.51  3075.03  3087.08  3093.94
 reduced masses (amu)
   1: 11.21   2: 14.16   3: 12.18   4: 13.90   5: 14.57   6: 11.67   7:  9.86   8:  9.60
   9:  9.29  10:  7.35  11:  9.60  12:  8.38  13:  2.39  14:  9.57  15:  6.24  16:  9.93
  17: 11.41  18: 13.86  19:  9.02  20: 18.97  21: 13.19  22: 11.18  23: 13.81  24: 10.53
  25: 12.53  26: 15.72  27:  4.47  28:  5.42  29:  4.01  30:  3.33  31:  3.58  32:  4.15
  33:  2.97  34: 10.03  35:  3.75  36:  3.15  37:  3.74  38:  3.90  39:  9.49  40:  9.32
  41:  8.40  42:  8.45  43:  4.45  44:  1.30  45:  1.98  46:  3.64  47:  3.31  48:  4.14
  49:  4.16  50:  3.36  51: 11.91  52:  2.96  53:  2.93  54:  8.59  55:  4.79  56:  2.07
  57:  5.28  58:  1.55  59:  1.54  60:  1.54  61:  1.56  62: 11.42  63: 11.44  64:  1.99
  65:  1.97  66:  1.48  67:  1.50  68:  1.86  69:  1.87  70:  1.79  71:  1.78  72:  1.44
  73:  1.55  74:  1.78  75:  1.77  76:  1.84  77:  1.88  78:  1.87
 IR intensities (km·mol⁻¹)
   1:  0.19   2:  0.05   3:  0.22   4:  0.02   5:  0.07   6:  0.06   7:  0.12   8:  0.21
   9:  0.17  10:  0.33  11:  0.10  12:  0.14  13:  0.05  14:  0.10  15:  0.12  16:  0.20
  17:  0.37  18:  0.35  19:  0.03  20:  1.56  21:  4.53  22:  0.04  23: 10.53  24:  3.34
  25:  0.13  26: 25.07  27: 33.58  28: 19.83  29: 20.86  30:  0.20  31:  0.01  32:  0.04
  33:  0.00  34:  2.13  35:  1.37  36:  2.37  37:  2.06  38:  8.42  39: 10.34  40:  7.60
  41:  0.03  42:  1.08  43:  0.16  44:  0.03  45:  0.80  46:  2.37  47:  3.82  48:  3.81
  49:  5.32  50:  0.31  51:  0.40  52:  1.69  53:  1.35  54:  0.75  55:  1.05  56:  1.20
  57:  0.04  58:  4.03  59:  0.62  60:  1.13  61:  1.11  62:  0.51  63:  5.78  64: 23.31
  65: 20.97  66:  9.16  67: 19.72  68: 49.03  69: 49.87  70: 11.98  71: 41.09  72: 24.63
  73: 21.71  74: 12.75  75:  5.19  76: 54.49  77: 76.93  78: 26.74
 Raman intensities (Ä⁴*amu⁻¹)
   1:  0.00   2:  0.00   3:  0.00   4:  0.00   5:  0.00   6:  0.00   7:  0.00   8:  0.00
   9:  0.00  10:  0.00  11:  0.00  12:  0.00  13:  0.00  14:  0.00  15:  0.00  16:  0.00
  17:  0.00  18:  0.00  19:  0.00  20:  0.00  21:  0.00  22:  0.00  23:  0.00  24:  0.00
  25:  0.00  26:  0.00  27:  0.00  28:  0.00  29:  0.00  30:  0.00  31:  0.00  32:  0.00
  33:  0.00  34:  0.00  35:  0.00  36:  0.00  37:  0.00  38:  0.00  39:  0.00  40:  0.00
  41:  0.00  42:  0.00  43:  0.00  44:  0.00  45:  0.00  46:  0.00  47:  0.00  48:  0.00
  49:  0.00  50:  0.00  51:  0.00  52:  0.00  53:  0.00  54:  0.00  55:  0.00  56:  0.00
  57:  0.00  58:  0.00  59:  0.00  60:  0.00  61:  0.00  62:  0.00  63:  0.00  64:  0.00
  65:  0.00  66:  0.00  67:  0.00  68:  0.00  69:  0.00  70:  0.00  71:  0.00  72:  0.00
  73:  0.00  74:  0.00  75:  0.00  76:  0.00  77:  0.00  78:  0.00
 output can be read by thermo (or use thermo option).
 writing <g98.out> molden fake output.
 recommended (thermochemical) frequency scaling factor: 1.0
           -------------------------------------------------
          |             Thermodynamic Functions             |
           -------------------------------------------------

Refinement of some symmetry elements was terminated before convergence was reached.
Some symmetry elements may remain unidentified.
Molecule has no symmetry elements
It seems to be the C1 point group
c1  symmetry found (for desy threshold:  0.10E+00) used in thermo

          ...................................................
          :                      SETUP                      :
          :.................................................:
          :  # frequencies                          72      :
          :  # imaginary freq.                       0      :
          :  linear?                             false      :
          :  only rotor calc.                    false      :
          :  symmetry                               c1      :
          :  rotational number                       1      :
          :  scaling factor                  1.0000000      :
          :  rotor cutoff                   50.0000000 cm⁻¹ :
          :  imag. cutoff                  -20.0000000 cm⁻¹ :
          :.................................................:

    mode    ω/cm⁻¹     T·S(HO)/kcal·mol⁻¹    T·S(FR)/kcal·mol⁻¹   T·S(vib)
   ------------------------------------------------------------------------
       1     24.83    -1.84983 (  5.74%)    -1.26356 ( 94.26%)    -1.29720
       2     72.36    -1.21885 ( 81.44%)    -0.94694 ( 18.56%)    -1.16837
       3     84.43    -1.12854 ( 89.05%)    -0.90126 ( 10.95%)    -1.10364
       4    127.24    -0.89067 ( 97.67%)    -0.77978 (  2.33%)    -0.88808
       5    130.46    -0.87635 ( 97.89%)    -0.77239 (  2.11%)    -0.87416
       6    200.63    -0.63425 ( 99.62%)    -0.64490 (  0.38%)    -0.63429
       7    204.70    -0.62326 ( 99.65%)    -0.63895 (  0.35%)    -0.62331
       8    228.81    -0.56299 ( 99.77%)    -0.60598 (  0.23%)    -0.56309
       9    262.55    -0.49039 ( 99.87%)    -0.56523 (  0.13%)    -0.49048
      10    277.61    -0.46164 ( 99.89%)    -0.54871 (  0.11%)    -0.46173
      11    283.53    -0.45089 ( 99.90%)    -0.54246 (  0.10%)    -0.45097
   ------------------------------------------------------------------------

   temp. (K)  partition function   enthalpy   heat capacity  entropy
                                   cal/mol     cal/K/mol   cal/K/mol   J/K/mol
 298.15  VIB  0.122E+05             6085.991     39.518     36.992
         ROT  0.113E+07              888.752      2.981     30.681
         INT  0.138E+11             6974.744     42.499     67.673
         TR   0.207E+28             1481.254      4.968     41.214
         TOT                        8455.9975    47.4669   108.8863   455.5802

       T/K    H(0)-H(T)+PV         H(T)/Eh          T*S/Eh         G(T)/Eh
   ------------------------------------------------------------------------
    298.15    0.134755E-01    0.232556E+00    0.517354E-01    0.180821E+00
   ------------------------------------------------------------------------

         :::::::::::::::::::::::::::::::::::::::::::::::::::::
         ::                  THERMODYNAMIC                  ::
         :::::::::::::::::::::::::::::::::::::::::::::::::::::
         :: total free energy         -31.375101182354 Eh   ::
         ::.................................................::
         :: total energy              -31.555921724794 Eh   ::
         :: zero point energy           0.219080434531 Eh   ::
         :: G(RRHO) w/o ZPVE           -0.038259892091 Eh   ::
         :: G(RRHO) contrib.            0.180820542440 Eh   ::
         :::::::::::::::::::::::::::::::::::::::::::::::::::::

optimized geometry written to: xtbopt.xyz


           -------------------------------------------------
          | TOTAL ENERGY              -31.555921724794 Eh   |
          | TOTAL ENTHALPY            -31.323365800455 Eh   |
          | TOTAL FREE ENERGY         -31.375101182354 Eh   |
          | GRADIENT NORM               0.000041691096 Eh/α |
          | HOMO-LUMO GAP               3.634040863930 eV   |
           -------------------------------------------------

------------------------------------------------------------------------
 * finished run on 2025/07/14 at 11:37:26.071     
------------------------------------------------------------------------
 total:
 * wall-time:     0 d,  0 h,  0 min, 18.101 sec
 *  cpu-time:     0 d,  0 h,  3 min, 20.140 sec
 * ratio c/w:    11.057 speedup
 SCF:
 * wall-time:     0 d,  0 h,  0 min,  0.087 sec
 *  cpu-time:     0 d,  0 h,  0 min,  1.032 sec
 * ratio c/w:    11.850 speedup
 ANC optimizer:
 * wall-time:     0 d,  0 h,  0 min, 14.622 sec
 *  cpu-time:     0 d,  0 h,  2 min, 52.696 sec
 * ratio c/w:    11.811 speedup
 analytical hessian:
 * wall-time:     0 d,  0 h,  0 min,  3.383 sec
 *  cpu-time:     0 d,  0 h,  0 min, 26.310 sec
 * ratio c/w:     7.778 speedup

