      -----------------------------------------------------------      
     |                   =====================                   |     
     |                           x T B                           |     
     |                   =====================                   |     
     |                         S. Grimme                         |     
     |          Mulliken Center for Theoretical Chemistry        |     
     |                    University of Bonn                     |     
      -----------------------------------------------------------      

   * xtb version 6.7.0 (08769fc) compiled by 'albert@albert-system' on 2024-03-04

   xtb is free software: you can redistribute it and/or modify it under
   the terms of the GNU Lesser General Public License as published by
   the Free Software Foundation, either version 3 of the License, or
   (at your option) any later version.
   
   xtb is distributed in the hope that it will be useful,
   but WITHOUT ANY WARRANTY; without even the implied warranty of
   MERCHANTABILITY or FITNESS FOR A PARTICULAR PURPOSE.  See the
   GNU Lesser General Public License for more details.
   
   Cite this work as:
   * C. Bannwarth, E. Caldeweyher, S. Ehlert, A. Hansen, P. Pracht,
     J. Seibert, S. Spicher, S. Grimme, WIREs Comput. Mol. Sci., 2020, 11,
     e01493. DOI: 10.1002/wcms.1493
   
   for GFN2-xTB:
   * C. Bannwarth, S. Ehlert and S. Grimme., J. Chem. Theory Comput., 2019,
     15, 1652-1671. DOI: 10.1021/acs.jctc.8b01176
   for GFN1-xTB:
   * S. Grimme, C. Bannwarth, P. Shushkov, J. Chem. Theory Comput., 2017,
     13, 1989-2009. DOI: 10.1021/acs.jctc.7b00118
   for GFN0-xTB:
   * P. Pracht, E. Caldeweyher, S. Ehlert, S. Grimme, ChemRxiv, 2019, preprint.
     DOI: 10.26434/chemrxiv.8326202.v1
   for GFN-FF:
   * S. Spicher and S. Grimme, Angew. Chem. Int. Ed., 2020, 59, 15665-15673.
     DOI: 10.1002/anie.202004239
   
   for ALPB and GBSA implicit solvation:
   * S. Ehlert, M. Stahn, S. Spicher, S. Grimme, J. Chem. Theory Comput.,
     2021, 17, 4250-4261. DOI: 10.1021/acs.jctc.1c00471
   
   for ddCOSMO and CPCM-X implicit solvation:
   * M. Stahn, S. Ehlert, S. Grimme, J. Phys. Chem. A,
     2023, XX, XXXX-XXXX. DOI: 10.1021/acs.jpca.3c04382
   
   for DFT-D4:
   * E. Caldeweyher, C. Bannwarth and S. Grimme, J. Chem. Phys., 2017,
     147, 034112. DOI: 10.1063/1.4993215
   * E. Caldeweyher, S. Ehlert, A. Hansen, H. Neugebauer, S. Spicher,
     C. Bannwarth and S. Grimme, J. Chem. Phys., 2019, 150, 154122.
     DOI: 10.1063/1.5090222
   * E. Caldeweyher, J.-M. Mewes, S. Ehlert and S. Grimme, Phys. Chem. Chem. Phys.
     2020, 22, 8499-8512. DOI: 10.1039/D0CP00502A
   
   for sTDA-xTB:
   * S. Grimme and C. Bannwarth, J. Chem. Phys., 2016, 145, 054103.
     DOI: 10.1063/1.4959605
   
   in the mass-spec context:
   * V. Asgeirsson, C. Bauer and S. Grimme, Chem. Sci., 2017, 8, 4879.
     DOI: 10.1039/c7sc00601b
   * J. Koopman and S. Grimme, ACS Omega 2019, 4, 12, 15120-15133.
     DOI: 10.1021/acsomega.9b02011
   
   for metadynamics refer to:
   * S. Grimme, J. Chem. Theory Comput., 2019, 155, 2847-2862
     DOI: 10.1021/acs.jctc.9b00143
   
   for SPH calculations refer to:
   * S. Spicher and S. Grimme, J. Chem. Theory Comput., 2021, 17, 1701-1714
     DOI: 10.1021/acs.jctc.0c01306
   
   for ONIOM refer to:
   * C. Plett, A. Katbashev, S. Ehlert, S. Grimme, M. Bursch,
     Phys. Chem. Chem. Phys., 2023, 25, 17860-17868. DOI: 10.1039/D3CP02178E
   
   for DIPRO refer to:
   * J. Kohn, N. Gildemeister, S. Grimme, D. Fazzi, A. Hansen,
     J. Chem. Phys., 2023, just accepted.
   
   for PTB refer to:
   * S. Grimme, M. Mueller, A. Hansen, J. Chem. Phys., 2023, 158, 124111.
     DOI: 10.1063/5.0137838
   
   with help from (in alphabetical order)
   P. Atkinson, C. Bannwarth, F. Bohle, G. Brandenburg, E. Caldeweyher
   M. Checinski, S. Dohm, S. Ehlert, S. Ehrlich, I. Gerasimov, C. Hölzer
   A. Katbashev, J. Kohn, J. Koopman, C. Lavigne, S. Lehtola, F. März, M. Müller,
   F. Musil, H. Neugebauer, J. Pisarek, C. Plett, P. Pracht, F. Pultar,
   J. Seibert, P. Shushkov, S. Spicher, M. Stahn, M. Steiner, T. Strunk,
   J. Stückrath, T. Rose, and J. Unsleber
   
 * started run on 2025/07/14 at 11:30:08.354     
   ID    Z sym.   atoms
    1   15 P      1
    2    6 C      2, 5, 9-14, 20, 23
    3    1 H      3, 4, 6-8, 15-19, 21, 22, 24-26

           -------------------------------------------------
          |                Calculation Setup                |
           -------------------------------------------------

          program call               : /home/minenky/programs/xtb/xtb-dist/bin/xtb m1_00_PEt2Ph-PBE0-D3-TZ-uniMM_33.xyz --charge 0 --T --ohess extreme --cycles 5000 --acc 0.01 --iterations 5000
          coordinate file            : m1_00_PEt2Ph-PBE0-D3-TZ-uniMM_33.xyz
          omp threads                :                    12

########################################################################
[WARNING] Please study the warnings concerning your input carefully
-1- prog_main_parseArguments: Unknown option '--T' provided
########################################################################

           -------------------------------------------------
          |                 G F N 2 - x T B                 |
           -------------------------------------------------

        Reference                      10.1021/acs.jctc.8b01176
      * Hamiltonian:
        H0-scaling (s, p, d)           1.850000    2.230000    2.230000
        zeta-weighting                 0.500000
      * Dispersion:
        s8                             2.700000
        a1                             0.520000
        a2                             5.000000
        s9                             5.000000
      * Repulsion:
        kExp                           1.500000    1.000000
        rExp                           1.000000
      * Coulomb:
        alpha                          2.000000
        third order                    shell-resolved
        anisotropic                    true
        a3                             3.000000
        a5                             4.000000
        cn-shift                       1.200000
        cn-exp                         4.000000
        max-rad                        5.000000


          ...................................................
          :                      SETUP                      :
          :.................................................:
          :  # basis functions                  65          :
          :  # atomic orbitals                  64          :
          :  # shells                           38          :
          :  # electrons                        60          :
          :  max. iterations                  5000          :
          :  Hamiltonian                  GFN2-xTB          :
          :  restarted?                      false          :
          :  GBSA solvation                  false          :
          :  PC potential                    false          :
          :  electronic temp.          300.0000000     K    :
          :  accuracy                    0.0100000          :
          :  -> integral cutoff          0.4500000E+02      :
          :  -> integral neglect         0.1000000E-09      :
          :  -> SCF convergence          0.1000000E-07 Eh   :
          :  -> wf. convergence          0.1000000E-05 e    :
          :  Broyden damping             0.4000000          :
          :  net charge                          0          :
          :  unpaired electrons                  0          :
          ...................................................

 iter      E             dE          RMSdq      gap      omega  full diag
   1    -32.0112697 -0.320113E+02  0.354E+00    3.95       0.0  T
   2    -32.0562497 -0.449801E-01  0.208E+00    3.40       1.0  T
   3    -32.0564535 -0.203798E-03  0.871E-01    3.10       1.0  T
   4    -32.0570821 -0.628575E-03  0.284E-01    3.11       1.0  T
   5    -32.0583704 -0.128826E-02  0.115E-01    3.15       1.0  T
   6    -32.0585623 -0.191891E-03  0.420E-02    3.15       1.0  T
   7    -32.0585798 -0.175342E-04  0.162E-02    3.15       1.2  T
   8    -32.0585804 -0.627713E-06  0.707E-03    3.15       2.8  T
   9    -32.0585811 -0.633846E-06  0.143E-03    3.15      13.7  T
  10    -32.0585811 -0.276681E-07  0.620E-04    3.15      31.7  T
  11    -32.0585811 -0.570125E-09  0.292E-04    3.15      67.1  T
  12    -32.0585811 -0.711658E-09  0.604E-05    3.15     324.4  T
  13    -32.0585811 -0.713385E-11  0.238E-05    3.15     825.3  T
  14    -32.0585811 -0.653699E-12  0.131E-05    3.15    1491.4  T
  15    -32.0585811 -0.192557E-11  0.222E-06    3.15    8841.6  T
  16    -32.0585811  0.710543E-14  0.108E-06    3.15   18097.9  T

   *** convergence criteria satisfied after 16 iterations ***

         #    Occupation            Energy/Eh            Energy/eV
      -------------------------------------------------------------
         1        2.0000           -0.6598316             -17.9549
       ...           ...                  ...                  ...
        24        2.0000           -0.4401621             -11.9774
        25        2.0000           -0.4243210             -11.5464
        26        2.0000           -0.4186057             -11.3908
        27        2.0000           -0.4108763             -11.1805
        28        2.0000           -0.4038975             -10.9906
        29        2.0000           -0.4001255             -10.8880
        30        2.0000           -0.3529854              -9.6052 (HOMO)
        31                         -0.2371949              -6.4544 (LUMO)
        32                         -0.2255930              -6.1387
        33                         -0.1489042              -4.0519
        34                         -0.1400528              -3.8110
        35                         -0.0913469              -2.4857
       ...                                ...                  ...
        64                          0.7772271              21.1494
      -------------------------------------------------------------
                  HL-Gap            0.1157904 Eh            3.1508 eV
             Fermi-level           -0.2950901 Eh           -8.0298 eV

 SCC (total)                   0 d,  0 h,  0 min,  0.088 sec
 SCC setup                      ...        0 min,  0.000 sec (  0.158%)
 Dispersion                     ...        0 min,  0.000 sec (  0.138%)
 classical contributions        ...        0 min,  0.000 sec (  0.011%)
 integral evaluation            ...        0 min,  0.002 sec (  2.203%)
 iterations                     ...        0 min,  0.084 sec ( 95.199%)
 molecular gradient             ...        0 min,  0.002 sec (  2.184%)
 printout                       ...        0 min,  0.000 sec (  0.086%)

         :::::::::::::::::::::::::::::::::::::::::::::::::::::
         ::                     SUMMARY                     ::
         :::::::::::::::::::::::::::::::::::::::::::::::::::::
         :: total energy             -31.543765588113 Eh    ::
         :: gradient norm              0.049326988678 Eh/a0 ::
         :: HOMO-LUMO gap              3.150817439704 eV    ::
         ::.................................................::
         :: SCC energy               -32.058401463896 Eh    ::
         :: -> isotropic ES            0.004102985721 Eh    ::
         :: -> anisotropic ES          0.005924388399 Eh    ::
         :: -> anisotropic XC          0.022488255420 Eh    ::
         :: -> dispersion             -0.024223226483 Eh    ::
         :: repulsion energy           0.514635875783 Eh    ::
         :: add. restraining           0.000000000000 Eh    ::
         :: total charge               0.000000000000 e     ::
         :::::::::::::::::::::::::::::::::::::::::::::::::::::

      ----------------------------------------------------------- 
     |                   =====================                   |
     |                        A N C O P T                        |
     |                   =====================                   |
     |               Approximate Normal Coordinate               |
     |                Rational Function Optimizer                |
      ----------------------------------------------------------- 
      ----------------------------------------------------------- 
     |                   =====================                   |
     |                        A N C O P T                        |
     |                   =====================                   |
     |               Approximate Normal Coordinate               |
     |                Rational Function Optimizer                |
      ----------------------------------------------------------- 

          ...................................................
          :                      SETUP                      :
          :.................................................:
          :   optimization level           extreme          :
          :   max. optcycles                  5000          :
          :   ANC micro-cycles                  20          :
          :   degrees of freedom                72          :
          :.................................................:
          :   RF solver                   davidson          :
          :   write xtbopt.log                true          :
          :   linear?                        false          :
          :   energy convergence         0.5000000E-07 Eh   :
          :   grad. convergence          0.5000000E-04 Eh/α :
          :   maxmium RF displ.          1.0000000          :
          :   Hlow (freq-cutoff)         0.1000000E-01      :
          :   Hmax (freq-cutoff)         5.0000000          :
          :   S6 in model hess.         20.0000000          :
          ...................................................

generating ANC from model Hessian ...
Using Lindh-Hessian (1995)
 Shifting diagonal of input Hessian by   1.032619502021385E-002
 Lowest  eigenvalues of input Hessian
    0.010000    0.000000    0.000000    0.000000    0.000000    0.000000
    0.000000    0.011094    0.011646    0.011941    0.012307    0.013811
    0.015396    0.018336    0.019527    0.020815    0.023816    0.024932
 Highest eigenvalues
    1.347992    1.535468    1.563053    1.864597    1.966645    1.986781
 

........................................................................
.............................. CYCLE    1 ..............................
........................................................................

 iter      E             dE          RMSdq      gap      omega  full diag
   1    -32.0585811 -0.320586E+02  0.509E-07    3.15       0.0  T
   2    -32.0585811 -0.142109E-13  0.288E-07    3.15   68205.6  T
   3    -32.0585811 -0.710543E-14  0.200E-07    3.15   98224.9  T
     SCC iter.                  ...        0 min,  0.074 sec
     gradient                   ...        0 min,  0.002 sec
 * total energy  :   -31.5437656 Eh     change       -0.2842171E-13 Eh
   gradient norm :     0.0493270 Eh/α   predicted     0.0000000E+00 (-100.00%)
   displ. norm   :     0.3724273 α      lambda       -0.9880124E-02
   maximum displ.:     0.1855418 α      in ANC's #13, #11, #19, ...

........................................................................
.............................. CYCLE    2 ..............................
........................................................................

 iter      E             dE          RMSdq      gap      omega  full diag
   1    -32.0647207 -0.320647E+02  0.409E-01    3.45       0.0  T
   2    -32.0649772 -0.256564E-03  0.182E-01    3.53       1.0  T
   3    -32.0649921 -0.148645E-04  0.647E-02    3.57       1.0  T
   4    -32.0649929 -0.795992E-06  0.419E-02    3.57       1.0  T
   5    -32.0650156 -0.227036E-04  0.877E-03    3.57       2.2  T
   6    -32.0650163 -0.694190E-06  0.331E-03    3.57       5.9  T
   7    -32.0650163 -0.344140E-07  0.145E-03    3.57      13.5  T
   8    -32.0650163 -0.924763E-08  0.483E-04    3.57      40.6  T
   9    -32.0650163 -0.270983E-08  0.167E-04    3.57     117.6  T
  10    -32.0650163 -0.107178E-09  0.779E-05    3.57     251.6  T
  11    -32.0650163 -0.391012E-10  0.263E-05    3.57     745.4  T
  12    -32.0650163 -0.430589E-11  0.102E-05    3.57    1921.9  T
  13    -32.0650163 -0.234479E-12  0.376E-06    3.57    5209.8  T
  14    -32.0650163 -0.426326E-13  0.124E-06    3.57   15813.3  T
     SCC iter.                  ...        0 min,  0.077 sec
     gradient                   ...        0 min,  0.002 sec
 * total energy  :   -31.5494709 Eh     change       -0.5705278E-02 Eh
   gradient norm :     0.0156625 Eh/α   predicted    -0.5625522E-02 (  -1.40%)
   displ. norm   :     0.3497117 α      lambda       -0.2224402E-02
   maximum displ.:     0.1732036 α      in ANC's #1, #3, #2, ...

........................................................................
.............................. CYCLE    3 ..............................
........................................................................

 iter      E             dE          RMSdq      gap      omega  full diag
   1    -32.0690163 -0.320690E+02  0.122E-01    3.59       0.0  T
   2    -32.0690224 -0.605761E-05  0.703E-02    3.59       1.0  T
   3    -32.0690223  0.780010E-07  0.124E-02    3.59       1.6  T
   4    -32.0690227 -0.422792E-06  0.500E-03    3.59       3.9  T
   5    -32.0690231 -0.333476E-06  0.151E-03    3.59      13.0  T
   6    -32.0690231 -0.208495E-07  0.710E-04    3.59      27.6  T
   7    -32.0690231 -0.227809E-08  0.284E-04    3.59      69.0  T
   8    -32.0690231 -0.170374E-09  0.101E-04    3.59     193.6  T
   9    -32.0690231 -0.346247E-10  0.395E-05    3.59     495.9  T
  10    -32.0690231 -0.967759E-11  0.156E-05    3.59    1258.4  T
  11    -32.0690231 -0.390799E-12  0.593E-06    3.59    3308.7  T
  12    -32.0690231 -0.177636E-12  0.206E-06    3.59    9517.5  T
     SCC iter.                  ...        0 min,  0.076 sec
     gradient                   ...        0 min,  0.002 sec
 * total energy  :   -31.5510851 Eh     change       -0.1614220E-02 Eh
   gradient norm :     0.0081394 Eh/α   predicted    -0.1248275E-02 ( -22.67%)
   displ. norm   :     0.4179834 α      lambda       -0.1454973E-02
   maximum displ.:     0.2161653 α      in ANC's #3, #1, #2, ...

........................................................................
.............................. CYCLE    4 ..............................
........................................................................

 iter      E             dE          RMSdq      gap      omega  full diag
   1    -32.0703667 -0.320704E+02  0.972E-02    3.61       0.0  T
   2    -32.0703718 -0.512049E-05  0.594E-02    3.61       1.0  T
   3    -32.0703691  0.274480E-05  0.149E-02    3.61       1.3  T
   4    -32.0703722 -0.308725E-05  0.739E-03    3.61       2.7  T
   5    -32.0703729 -0.716111E-06  0.175E-03    3.61      11.2  T
   6    -32.0703729 -0.469905E-07  0.729E-04    3.61      26.9  T
   7    -32.0703729 -0.168287E-08  0.352E-04    3.61      55.7  T
   8    -32.0703729 -0.866173E-09  0.112E-04    3.61     175.2  T
   9    -32.0703729 -0.141156E-09  0.457E-05    3.61     428.7  T
  10    -32.0703729 -0.980549E-11  0.174E-05    3.61    1128.3  T
  11    -32.0703729 -0.105160E-11  0.800E-06    3.61    2451.4  T
  12    -32.0703729 -0.319744E-12  0.265E-06    3.61    7393.9  T
     SCC iter.                  ...        0 min,  0.076 sec
     gradient                   ...        0 min,  0.002 sec
 * total energy  :   -31.5521388 Eh     change       -0.1053738E-02 Eh
   gradient norm :     0.0076658 Eh/α   predicted    -0.8546028E-03 ( -18.90%)
   displ. norm   :     0.4113383 α      lambda       -0.8708895E-03
   maximum displ.:     0.2174117 α      in ANC's #3, #1, #2, ...

........................................................................
.............................. CYCLE    5 ..............................
........................................................................

 iter      E             dE          RMSdq      gap      omega  full diag
   1    -32.0706011 -0.320706E+02  0.879E-02    3.59       0.0  T
   2    -32.0706030 -0.199648E-05  0.516E-02    3.59       1.0  T
   3    -32.0706018  0.126902E-05  0.894E-03    3.59       2.2  T
   4    -32.0706033 -0.147256E-05  0.381E-03    3.59       5.1  T
   5    -32.0706035 -0.248963E-06  0.122E-03    3.59      16.1  T
   6    -32.0706035 -0.327538E-08  0.501E-04    3.59      39.1  T
   7    -32.0706035 -0.283936E-08  0.199E-04    3.59      98.6  T
   8    -32.0706035 -0.360622E-09  0.632E-05    3.59     310.2  T
   9    -32.0706035 -0.270077E-10  0.341E-05    3.59     574.9  T
  10    -32.0706035 -0.844125E-11  0.114E-05    3.59    1718.6  T
  11    -32.0706035 -0.305533E-12  0.394E-06    3.59    4972.8  T
  12    -32.0706035 -0.426326E-13  0.152E-06    3.59   12943.3  T
     SCC iter.                  ...        0 min,  0.076 sec
     gradient                   ...        0 min,  0.002 sec
 * total energy  :   -31.5528012 Eh     change       -0.6624014E-03 Eh
   gradient norm :     0.0080237 Eh/α   predicted    -0.5091240E-03 ( -23.14%)
   displ. norm   :     0.4239372 α      lambda       -0.6979264E-03
   maximum displ.:     0.2098708 α      in ANC's #3, #1, #2, ...

........................................................................
.............................. CYCLE    6 ..............................
........................................................................

 iter      E             dE          RMSdq      gap      omega  full diag
   1    -32.0709024 -0.320709E+02  0.955E-02    3.58       0.0  T
   2    -32.0709040 -0.165936E-05  0.549E-02    3.58       1.0  T
   3    -32.0709032  0.826776E-06  0.929E-03    3.58       2.1  T
   4    -32.0709043 -0.107344E-05  0.315E-03    3.58       6.2  T
   5    -32.0709044 -0.114330E-06  0.129E-03    3.58      15.2  T
   6    -32.0709044 -0.142428E-07  0.646E-04    3.58      30.3  T
   7    -32.0709044 -0.256085E-08  0.164E-04    3.58     119.9  T
   8    -32.0709044 -0.419959E-09  0.663E-05    3.58     295.7  T
   9    -32.0709044 -0.238529E-10  0.285E-05    3.58     689.0  T
  10    -32.0709044 -0.361666E-11  0.125E-05    3.58    1567.9  T
  11    -32.0709044 -0.717648E-12  0.380E-06    3.58    5166.1  T
  12    -32.0709044  0.142109E-13  0.162E-06    3.58   12086.7  T
     SCC iter.                  ...        0 min,  0.076 sec
     gradient                   ...        0 min,  0.002 sec
 * total energy  :   -31.5533292 Eh     change       -0.5279468E-03 Eh
   gradient norm :     0.0070112 Eh/α   predicted    -0.4116816E-03 ( -22.02%)
   displ. norm   :     0.3942069 α      lambda       -0.5417888E-03
   maximum displ.:     0.1726745 α      in ANC's #3, #5, #1, ...

........................................................................
.............................. CYCLE    7 ..............................
........................................................................

 iter      E             dE          RMSdq      gap      omega  full diag
   1    -32.0717869 -0.320718E+02  0.938E-02    3.57       0.0  T
   2    -32.0717889 -0.200856E-05  0.557E-02    3.57       1.0  T
   3    -32.0717875  0.144531E-05  0.122E-02    3.57       1.6  T
   4    -32.0717893 -0.179116E-05  0.345E-03    3.57       5.7  T
   5    -32.0717894 -0.117817E-06  0.151E-03    3.57      13.0  T
   6    -32.0717894 -0.310832E-07  0.658E-04    3.57      29.8  T
   7    -32.0717894 -0.186633E-08  0.151E-04    3.57     129.5  T
   8    -32.0717894 -0.344549E-09  0.516E-05    3.57     380.3  T
   9    -32.0717894 -0.160085E-10  0.268E-05    3.57     731.8  T
  10    -32.0717894 -0.295586E-11  0.841E-06    3.57    2331.6  T
  11    -32.0717894 -0.227374E-12  0.278E-06    3.57    7049.8  T
     SCC iter.                  ...        0 min,  0.075 sec
     gradient                   ...        0 min,  0.002 sec
 * total energy  :   -31.5537284 Eh     change       -0.3992040E-03 Eh
   gradient norm :     0.0066473 Eh/α   predicted    -0.3129928E-03 ( -21.60%)
   displ. norm   :     0.3316028 α      lambda       -0.3988362E-03
   maximum displ.:     0.1606165 α      in ANC's #5, #4, #6, ...

........................................................................
.............................. CYCLE    8 ..............................
........................................................................

 iter      E             dE          RMSdq      gap      omega  full diag
   1    -32.0730682 -0.320731E+02  0.809E-02    3.57       0.0  T
   2    -32.0730700 -0.174057E-05  0.508E-02    3.58       1.0  T
   3    -32.0730685  0.146804E-05  0.117E-02    3.58       1.7  T
   4    -32.0730703 -0.177909E-05  0.305E-03    3.58       6.4  T
   5    -32.0730704 -0.964673E-07  0.142E-03    3.58      13.8  T
   6    -32.0730704 -0.320522E-07  0.518E-04    3.58      37.9  T
   7    -32.0730704 -0.459039E-09  0.133E-04    3.58     147.6  T
   8    -32.0730704 -0.226940E-09  0.381E-05    3.58     514.8  T
   9    -32.0730704 -0.690648E-11  0.208E-05    3.58     940.8  T
  10    -32.0730704 -0.161293E-11  0.590E-06    3.58    3325.8  T
  11    -32.0730704 -0.184741E-12  0.192E-06    3.58   10194.6  T
     SCC iter.                  ...        0 min,  0.076 sec
     gradient                   ...        0 min,  0.002 sec
 * total energy  :   -31.5540328 Eh     change       -0.3044124E-03 Eh
   gradient norm :     0.0074572 Eh/α   predicted    -0.2213474E-03 ( -27.29%)
   displ. norm   :     0.3606987 α      lambda       -0.4093989E-03
   maximum displ.:     0.2024048 α      in ANC's #4, #5, #6, ...

........................................................................
.............................. CYCLE    9 ..............................
........................................................................

 iter      E             dE          RMSdq      gap      omega  full diag
   1    -32.0737950 -0.320738E+02  0.867E-02    3.59       0.0  T
   2    -32.0737969 -0.187928E-05  0.557E-02    3.59       1.0  T
   3    -32.0737956  0.127727E-05  0.127E-02    3.59       1.5  T
   4    -32.0737973 -0.164391E-05  0.244E-03    3.59       8.0  T
   5    -32.0737973 -0.389943E-07  0.146E-03    3.59      13.5  T
   6    -32.0737974 -0.332228E-07  0.549E-04    3.59      35.7  T
   7    -32.0737974 -0.488484E-09  0.153E-04    3.59     128.5  T
   8    -32.0737974 -0.932303E-10  0.423E-05    3.59     463.7  T
   9    -32.0737974 -0.139693E-10  0.183E-05    3.59    1073.8  T
  10    -32.0737974 -0.142819E-11  0.513E-06    3.59    3822.2  T
  11    -32.0737974 -0.241585E-12  0.200E-06    3.59    9827.0  T
     SCC iter.                  ...        0 min,  0.075 sec
     gradient                   ...        0 min,  0.002 sec
 * total energy  :   -31.5543592 Eh     change       -0.3264582E-03 Eh
   gradient norm :     0.0088841 Eh/α   predicted    -0.2313429E-03 ( -29.14%)
   displ. norm   :     0.4139760 α      lambda       -0.5477501E-03
   maximum displ.:     0.2680258 α      in ANC's #4, #5, #6, ...

........................................................................
.............................. CYCLE   10 ..............................
........................................................................

 iter      E             dE          RMSdq      gap      omega  full diag
   1    -32.0754850 -0.320755E+02  0.109E-01    3.61       0.0  T
   2    -32.0754864 -0.136809E-05  0.676E-02    3.61       1.0  T
   3    -32.0754857  0.657643E-06  0.100E-02    3.62       2.0  T
   4    -32.0754866 -0.932895E-06  0.259E-03    3.62       7.6  T
   5    -32.0754867 -0.251834E-07  0.126E-03    3.62      15.5  T
   6    -32.0754867 -0.246834E-07  0.541E-04    3.62      36.3  T
   7    -32.0754867 -0.605567E-09  0.164E-04    3.62     119.7  T
   8    -32.0754867 -0.444516E-10  0.556E-05    3.62     352.8  T
   9    -32.0754867 -0.322302E-10  0.203E-05    3.62     964.2  T
  10    -32.0754867 -0.255085E-11  0.699E-06    3.62    2806.6  T
  11    -32.0754867 -0.419220E-12  0.299E-06    3.62    6565.5  T
     SCC iter.                  ...        0 min,  0.075 sec
     gradient                   ...        0 min,  0.002 sec
 * total energy  :   -31.5547768 Eh     change       -0.4175488E-03 Eh
   gradient norm :     0.0089146 Eh/α   predicted    -0.3208126E-03 ( -23.17%)
   displ. norm   :     0.5664121 α      lambda       -0.5635408E-03
   maximum displ.:     0.3637346 α      in ANC's #4, #5, #6, ...

........................................................................
.............................. CYCLE   11 ..............................
........................................................................

 iter      E             dE          RMSdq      gap      omega  full diag
   1    -32.0691820 -0.320692E+02  0.139E-01    3.64       0.0  T
   2    -32.0691951 -0.130985E-04  0.803E-02    3.64       1.0  T
   3    -32.0691951  0.277323E-08  0.283E-02    3.64       1.0  T
   4    -32.0691967 -0.164341E-05  0.730E-03    3.64       2.7  T
   5    -32.0691968 -0.309399E-07  0.342E-03    3.64       5.7  T
   6    -32.0691968 -0.189180E-07  0.123E-03    3.64      15.9  T
   7    -32.0691968 -0.108527E-08  0.451E-04    3.64      43.5  T
   8    -32.0691968 -0.171350E-08  0.111E-04    3.64     176.1  T
   9    -32.0691968 -0.639346E-10  0.365E-05    3.64     537.7  T
  10    -32.0691968 -0.101608E-10  0.150E-05    3.64    1311.7  T
  11    -32.0691968 -0.103739E-11  0.620E-06    3.64    3162.6  T
  12    -32.0691968 -0.184741E-12  0.175E-06    3.64   11216.6  T
     SCC iter.                  ...        0 min,  0.076 sec
     gradient                   ...        0 min,  0.003 sec
 * total energy  :   -31.5549370 Eh     change       -0.1602129E-03 Eh
   gradient norm :     0.0167964 Eh/α   predicted    -0.3721692E-03 ( 132.30%)
   displ. norm   :     0.2675618 α      lambda       -0.1050271E-02
   maximum displ.:     0.1330991 α      in ANC's #3, #4, #1, ...

........................................................................
.............................. CYCLE   12 ..............................
........................................................................

 iter      E             dE          RMSdq      gap      omega  full diag
   1    -32.0756104 -0.320756E+02  0.105E-01    3.65       0.0  T
   2    -32.0756208 -0.103606E-04  0.501E-02    3.64       1.0  T
   3    -32.0756208  0.293595E-08  0.290E-02    3.64       1.0  T
   4    -32.0756221 -0.131697E-05  0.662E-03    3.64       3.0  T
   5    -32.0756220  0.553728E-07  0.375E-03    3.64       5.2  T
   6    -32.0756222 -0.116514E-06  0.149E-03    3.64      13.2  T
   7    -32.0756222 -0.972732E-08  0.360E-04    3.64      54.5  T
   8    -32.0756222 -0.115051E-09  0.978E-05    3.64     200.6  T
   9    -32.0756222 -0.254872E-10  0.570E-05    3.64     344.3  T
  10    -32.0756222 -0.694200E-11  0.209E-05    3.64     938.2  T
  11    -32.0756222 -0.300560E-11  0.645E-06    3.64    3042.4  T
  12    -32.0756222 -0.461853E-12  0.205E-06    3.64    9562.0  T
     SCC iter.                  ...        0 min,  0.076 sec
     gradient                   ...        0 min,  0.002 sec
 * total energy  :   -31.5553817 Eh     change       -0.4446542E-03 Eh
   gradient norm :     0.0090731 Eh/α   predicted    -0.5627304E-03 (  26.55%)
   displ. norm   :     0.2556387 α      lambda       -0.2857697E-03
   maximum displ.:     0.1597745 α      in ANC's #4, #5, #6, ...

........................................................................
.............................. CYCLE   13 ..............................
........................................................................

 iter      E             dE          RMSdq      gap      omega  full diag
   1    -32.0740746 -0.320741E+02  0.734E-02    3.64       0.0  T
   2    -32.0740774 -0.276941E-05  0.412E-02    3.64       1.0  T
   3    -32.0740774 -0.950190E-07  0.916E-03    3.64       2.1  T
   4    -32.0740776 -0.109362E-06  0.326E-03    3.64       6.0  T
   5    -32.0740775  0.109405E-07  0.200E-03    3.64       9.8  T
   6    -32.0740776 -0.524947E-07  0.802E-04    3.64      24.5  T
   7    -32.0740776 -0.704560E-09  0.164E-04    3.64     119.2  T
   8    -32.0740776 -0.814495E-10  0.551E-05    3.64     355.8  T
   9    -32.0740776 -0.217213E-10  0.288E-05    3.64     681.5  T
  10    -32.0740776 -0.482459E-11  0.852E-06    3.64    2301.3  T
  11    -32.0740776 -0.184741E-12  0.188E-06    3.64   10437.3  T
     SCC iter.                  ...        0 min,  0.077 sec
     gradient                   ...        0 min,  0.002 sec
 * total energy  :   -31.5555530 Eh     change       -0.1713222E-03 Eh
   gradient norm :     0.0079676 Eh/α   predicted    -0.1522263E-03 ( -11.15%)
   displ. norm   :     0.1961148 α      lambda       -0.2420845E-03
   maximum displ.:     0.1146059 α      in ANC's #5, #4, #2, ...

........................................................................
.............................. CYCLE   14 ..............................
........................................................................

 iter      E             dE          RMSdq      gap      omega  full diag
   1    -32.0745491 -0.320745E+02  0.639E-02    3.63       0.0  T
   2    -32.0745505 -0.134974E-05  0.356E-02    3.63       1.0  T
   3    -32.0745499  0.554791E-06  0.122E-02    3.63       1.6  T
   4    -32.0745507 -0.833124E-06  0.331E-03    3.63       5.9  T
   5    -32.0745507  0.304212E-07  0.192E-03    3.63      10.2  T
   6    -32.0745508 -0.682990E-07  0.831E-04    3.63      23.6  T
   7    -32.0745508 -0.108606E-08  0.159E-04    3.63     123.3  T
   8    -32.0745508 -0.306819E-09  0.536E-05    3.63     366.1  T
   9    -32.0745508 -0.130100E-10  0.252E-05    3.63     778.9  T
  10    -32.0745508 -0.282796E-11  0.905E-06    3.63    2167.2  T
  11    -32.0745508 -0.362377E-12  0.252E-06    3.63    7768.2  T
     SCC iter.                  ...        0 min,  0.076 sec
     gradient                   ...        0 min,  0.002 sec
 * total energy  :   -31.5556888 Eh     change       -0.1358052E-03 Eh
   gradient norm :     0.0061336 Eh/α   predicted    -0.1256987E-03 (  -7.44%)
   displ. norm   :     0.1300929 α      lambda       -0.2043715E-03
   maximum displ.:     0.0746442 α      in ANC's #2, #9, #10, ...

........................................................................
.............................. CYCLE   15 ..............................
........................................................................

 iter      E             dE          RMSdq      gap      omega  full diag
   1    -32.0772699 -0.320773E+02  0.518E-02    3.62       0.0  T
   2    -32.0772715 -0.157939E-05  0.268E-02    3.62       1.0  T
   3    -32.0772714  0.125995E-06  0.126E-02    3.62       1.6  T
   4    -32.0772718 -0.364440E-06  0.212E-03    3.62       9.3  T
   5    -32.0772718 -0.245180E-07  0.985E-04    3.62      19.9  T
   6    -32.0772718 -0.128226E-07  0.507E-04    3.62      38.7  T
   7    -32.0772718 -0.257219E-08  0.142E-04    3.62     138.2  T
   8    -32.0772718 -0.197105E-10  0.517E-05    3.62     379.3  T
   9    -32.0772718 -0.313491E-10  0.185E-05    3.62    1059.3  T
  10    -32.0772718 -0.902389E-12  0.631E-06    3.62    3108.5  T
  11    -32.0772718 -0.163425E-12  0.275E-06    3.62    7120.3  T
     SCC iter.                  ...        0 min,  0.075 sec
     gradient                   ...        0 min,  0.002 sec
 * total energy  :   -31.5557822 Eh     change       -0.9336930E-04 Eh
   gradient norm :     0.0052295 Eh/α   predicted    -0.1039161E-03 (  11.30%)
   displ. norm   :     0.2250247 α      lambda       -0.1224798E-03
   maximum displ.:     0.1341284 α      in ANC's #5, #4, #9, ...

........................................................................
.............................. CYCLE   16 ..............................
........................................................................

 iter      E             dE          RMSdq      gap      omega  full diag
   1    -32.0746047 -0.320746E+02  0.569E-02    3.63       0.0  T
   2    -32.0746058 -0.111158E-05  0.334E-02    3.64       1.0  T
   3    -32.0746058 -0.833787E-08  0.591E-03    3.64       3.3  T
   4    -32.0746059 -0.106067E-06  0.199E-03    3.64       9.9  T
   5    -32.0746059 -0.623030E-08  0.104E-03    3.64      18.8  T
   6    -32.0746059 -0.105096E-07  0.394E-04    3.64      49.8  T
   7    -32.0746059 -0.161944E-08  0.138E-04    3.64     141.6  T
   8    -32.0746059 -0.207336E-10  0.387E-05    3.64     507.0  T
   9    -32.0746059 -0.106581E-10  0.180E-05    3.64    1090.5  T
  10    -32.0746059 -0.209610E-11  0.374E-06    3.64    5245.9  T
  11    -32.0746059 -0.852651E-13  0.188E-06    3.64   10445.3  T
     SCC iter.                  ...        0 min,  0.076 sec
     gradient                   ...        0 min,  0.002 sec
 * total energy  :   -31.5558481 Eh     change       -0.6590134E-04 Eh
   gradient norm :     0.0052404 Eh/α   predicted    -0.6434502E-04 (  -2.36%)
   displ. norm   :     0.0913107 α      lambda       -0.8435389E-04
   maximum displ.:     0.0464418 α      in ANC's #5, #2, #3, ...

........................................................................
.............................. CYCLE   17 ..............................
........................................................................

 iter      E             dE          RMSdq      gap      omega  full diag
   1    -32.0756355 -0.320756E+02  0.289E-02    3.64       0.0  T
   2    -32.0756358 -0.338638E-06  0.167E-02    3.64       1.2  T
   3    -32.0756358 -0.639842E-08  0.231E-03    3.64       8.5  T
   4    -32.0756358 -0.200903E-07  0.784E-04    3.64      25.0  T
   5    -32.0756358 -0.443398E-08  0.425E-04    3.64      46.2  T
   6    -32.0756358 -0.143022E-08  0.130E-04    3.64     151.3  T
   7    -32.0756358 -0.490630E-10  0.575E-05    3.64     340.8  T
   8    -32.0756358 -0.355129E-10  0.200E-05    3.64     982.3  T
   9    -32.0756358 -0.149925E-11  0.816E-06    3.64    2404.1  T
  10    -32.0756358 -0.241585E-12  0.481E-06    3.64    4077.4  T
     SCC iter.                  ...        0 min,  0.075 sec
     gradient                   ...        0 min,  0.002 sec
 * total energy  :   -31.5559015 Eh     change       -0.5345273E-04 Eh
   gradient norm :     0.0026900 Eh/α   predicted    -0.4253029E-04 ( -20.43%)
   displ. norm   :     0.1995997 α      lambda       -0.8788906E-04
   maximum displ.:     0.1216938 α      in ANC's #5, #2, #4, ...

........................................................................
.............................. CYCLE   18 ..............................
........................................................................

 iter      E             dE          RMSdq      gap      omega  full diag
   1    -32.0756327 -0.320756E+02  0.532E-02    3.64       0.0  T
   2    -32.0756328 -0.150848E-06  0.316E-02    3.64       1.0  T
   3    -32.0756328  0.484347E-07  0.340E-03    3.64       5.8  T
   4    -32.0756329 -0.992029E-07  0.100E-03    3.64      19.6  T
   5    -32.0756329  0.212842E-08  0.653E-04    3.64      30.0  T
   6    -32.0756329 -0.510986E-08  0.243E-04    3.64      80.8  T
   7    -32.0756329 -0.884484E-10  0.354E-05    3.64     553.7  T
   8    -32.0756329 -0.101181E-10  0.180E-05    3.64    1088.7  T
   9    -32.0756329 -0.198241E-11  0.760E-06    3.64    2578.8  T
  10    -32.0756329 -0.646594E-12  0.222E-06    3.64    8846.3  T
     SCC iter.                  ...        0 min,  0.075 sec
     gradient                   ...        0 min,  0.002 sec
 * total energy  :   -31.5559676 Eh     change       -0.6607319E-04 Eh
   gradient norm :     0.0030721 Eh/α   predicted    -0.4569708E-04 ( -30.84%)
   displ. norm   :     0.2695641 α      lambda       -0.1127788E-03
   maximum displ.:     0.1652094 α      in ANC's #2, #5, #6, ...

........................................................................
.............................. CYCLE   19 ..............................
........................................................................

 iter      E             dE          RMSdq      gap      omega  full diag
   1    -32.0769679 -0.320770E+02  0.786E-02    3.64       0.0  T
   2    -32.0769685 -0.534821E-06  0.465E-02    3.64       1.0  T
   3    -32.0769681  0.357850E-06  0.638E-03    3.64       3.1  T
   4    -32.0769686 -0.477944E-06  0.177E-03    3.64      11.1  T
   5    -32.0769686 -0.179698E-07  0.918E-04    3.64      21.4  T
   6    -32.0769686 -0.136594E-07  0.427E-04    3.64      45.9  T
   7    -32.0769686 -0.432188E-09  0.737E-05    3.64     266.2  T
   8    -32.0769686 -0.177707E-10  0.266E-05    3.64     737.6  T
   9    -32.0769686 -0.726885E-11  0.117E-05    3.64    1674.7  T
  10    -32.0769686 -0.118661E-11  0.327E-06    3.64    5989.8  T
  11    -32.0769686 -0.106581E-12  0.140E-06    3.64   14016.0  T
     SCC iter.                  ...        0 min,  0.075 sec
     gradient                   ...        0 min,  0.002 sec
 * total energy  :   -31.5560353 Eh     change       -0.6770559E-04 Eh
   gradient norm :     0.0035421 Eh/α   predicted    -0.6049170E-04 ( -10.65%)
   displ. norm   :     0.1879388 α      lambda       -0.4742949E-04
   maximum displ.:     0.1223136 α      in ANC's #2, #5, #6, ...

........................................................................
.............................. CYCLE   20 ..............................
........................................................................

 iter      E             dE          RMSdq      gap      omega  full diag
   1    -32.0764437 -0.320764E+02  0.486E-02    3.64       0.0  T
   2    -32.0764440 -0.326704E-06  0.285E-02    3.64       1.0  T
   3    -32.0764437  0.300004E-06  0.431E-03    3.64       4.6  T
   4    -32.0764440 -0.304005E-06  0.200E-03    3.64       9.8  T
   5    -32.0764441 -0.867219E-07  0.419E-04    3.64      46.9  T
   6    -32.0764441 -0.433332E-09  0.257E-04    3.64      76.3  T
   7    -32.0764441 -0.250800E-09  0.742E-05    3.64     264.5  T
   8    -32.0764441 -0.257927E-10  0.361E-05    3.64     543.9  T
   9    -32.0764441 -0.999023E-11  0.141E-05    3.64    1394.6  T
  10    -32.0764441 -0.618172E-12  0.243E-06    3.64    8071.1  T
  11    -32.0764441 -0.213163E-13  0.841E-07    3.64   23306.6  T
     SCC iter.                  ...        0 min,  0.075 sec
     gradient                   ...        0 min,  0.002 sec
 * total energy  :   -31.5560625 Eh     change       -0.2721378E-04 Eh
   gradient norm :     0.0032607 Eh/α   predicted    -0.2455469E-04 (  -9.77%)
   displ. norm   :     0.0764354 α      lambda       -0.3333609E-04
   maximum displ.:     0.0553965 α      in ANC's #2, #4, #5, ...
 * RMSD in coord.:     0.8719988 α      energy gain  -0.1229692E-01 Eh

generating ANC from model Hessian ...
Using Lindh-Hessian (1995)
 Shifting diagonal of input Hessian by   9.155964604636951E-003
 Lowest  eigenvalues of input Hessian
    0.000000    0.000000    0.000000    0.000000    0.000000    0.000000
    0.010000    0.010175    0.010717    0.010947    0.011406    0.012910
    0.015040    0.017020    0.018444    0.018813    0.022275    0.024247
 Highest eigenvalues
    1.363814    1.554743    1.573544    1.882601    1.989242    2.004969
 

........................................................................
.............................. CYCLE   21 ..............................
........................................................................

 iter      E             dE          RMSdq      gap      omega  full diag
   1    -32.0777790 -0.320778E+02  0.219E-02    3.64       0.0  T
   2    -32.0777793 -0.290659E-06  0.129E-02    3.64       1.5  T
   3    -32.0777792  0.459821E-07  0.383E-03    3.64       5.1  T
   4    -32.0777793 -0.781074E-07  0.110E-03    3.64      17.9  T
   5    -32.0777793 -0.278849E-08  0.592E-04    3.64      33.1  T
   6    -32.0777793 -0.232892E-08  0.294E-04    3.64      66.6  T
   7    -32.0777793 -0.552191E-09  0.588E-05    3.64     333.5  T
   8    -32.0777793 -0.380851E-11  0.220E-05    3.64     893.0  T
   9    -32.0777793 -0.284217E-11  0.113E-05    3.64    1736.5  T
  10    -32.0777793 -0.248690E-12  0.299E-06    3.64    6569.8  T
  11    -32.0777793 -0.355271E-13  0.110E-06    3.64   17895.3  T
     SCC iter.                  ...        0 min,  0.075 sec
     gradient                   ...        0 min,  0.002 sec
 * total energy  :   -31.5560771 Eh     change       -0.1456747E-04 Eh
   gradient norm :     0.0026581 Eh/α   predicted     0.0000000E+00 (-100.00%)
   displ. norm   :     0.0205992 α      lambda       -0.2368737E-04
   maximum displ.:     0.0112011 α      in ANC's #17, #7, #16, ...

........................................................................
.............................. CYCLE   22 ..............................
........................................................................

 iter      E             dE          RMSdq      gap      omega  full diag
   1    -32.0770864 -0.320771E+02  0.109E-02    3.64       0.0  T
   2    -32.0770865 -0.126044E-06  0.615E-03    3.64       3.2  T
   3    -32.0770865  0.354548E-08  0.210E-03    3.64       9.4  T
   4    -32.0770865 -0.129392E-07  0.659E-04    3.64      29.8  T
   5    -32.0770865 -0.292072E-08  0.336E-04    3.64      58.4  T
   6    -32.0770865 -0.149100E-08  0.131E-04    3.64     149.3  T
   7    -32.0770865 -0.420357E-10  0.388E-05    3.64     506.0  T
   8    -32.0770865 -0.585487E-11  0.107E-05    3.64    1832.8  T
   9    -32.0770865 -0.795808E-12  0.552E-06    3.64    3551.6  T
  10    -32.0770865 -0.923706E-13  0.247E-06    3.64    7946.6  T
     SCC iter.                  ...        0 min,  0.075 sec
     gradient                   ...        0 min,  0.002 sec
 * total energy  :   -31.5560932 Eh     change       -0.1614674E-04 Eh
   gradient norm :     0.0009308 Eh/α   predicted    -0.1188528E-04 ( -26.39%)
   displ. norm   :     0.0326680 α      lambda       -0.7617146E-05
   maximum displ.:     0.0147593 α      in ANC's #7, #17, #10, ...

........................................................................
.............................. CYCLE   23 ..............................
........................................................................

 iter      E             dE          RMSdq      gap      omega  full diag
   1    -32.0766551 -0.320767E+02  0.134E-02    3.64       0.0  T
   2    -32.0766552 -0.803521E-07  0.747E-03    3.64       2.6  T
   3    -32.0766552  0.376100E-08  0.190E-03    3.64      10.3  T
   4    -32.0766552 -0.110190E-07  0.488E-04    3.64      40.2  T
   5    -32.0766552 -0.143876E-08  0.295E-04    3.64      66.6  T
   6    -32.0766552 -0.104159E-08  0.978E-05    3.64     200.5  T
   7    -32.0766552 -0.250182E-10  0.320E-05    3.64     612.1  T
   8    -32.0766552 -0.970601E-11  0.947E-06    3.64    2071.0  T
   9    -32.0766552 -0.731859E-12  0.433E-06    3.64    4531.5  T
     SCC iter.                  ...        0 min,  0.075 sec
     gradient                   ...        0 min,  0.002 sec
 * total energy  :   -31.5560979 Eh     change       -0.4652128E-05 Eh
   gradient norm :     0.0007664 Eh/α   predicted    -0.3810561E-05 ( -18.09%)
   displ. norm   :     0.0131542 α      lambda       -0.1783849E-05
   maximum displ.:     0.0061680 α      in ANC's #9, #6, #1, ...

........................................................................
.............................. CYCLE   24 ..............................
........................................................................

 iter      E             dE          RMSdq      gap      omega  full diag
   1    -32.0768120 -0.320768E+02  0.512E-03    3.64       0.0  T
   2    -32.0768120 -0.105986E-07  0.291E-03    3.64       6.8  T
   3    -32.0768120  0.305871E-08  0.680E-04    3.64      28.9  T
   4    -32.0768120 -0.376623E-08  0.281E-04    3.64      69.8  T
   5    -32.0768120 -0.101844E-08  0.935E-05    3.64     209.8  T
   6    -32.0768120 -0.110084E-09  0.310E-05    3.64     633.2  T
   7    -32.0768120 -0.519407E-11  0.122E-05    3.64    1610.3  T
   8    -32.0768120 -0.994760E-13  0.434E-06    3.64    4513.7  T
   9    -32.0768120 -0.149214E-12  0.168E-06    3.64   11699.5  T
     SCC iter.                  ...        0 min,  0.075 sec
     gradient                   ...        0 min,  0.002 sec
 * total energy  :   -31.5561001 Eh     change       -0.2253768E-05 Eh
   gradient norm :     0.0003634 Eh/α   predicted    -0.9353821E-06 ( -58.50%)
   displ. norm   :     0.0478601 α      lambda       -0.3803409E-05
   maximum displ.:     0.0218752 α      in ANC's #9, #3, #1, ...

........................................................................
.............................. CYCLE   25 ..............................
........................................................................

 iter      E             dE          RMSdq      gap      omega  full diag
   1    -32.0770245 -0.320770E+02  0.154E-02    3.64       0.0  T
   2    -32.0770245 -0.242736E-07  0.906E-03    3.64       2.2  T
   3    -32.0770245  0.153682E-07  0.126E-03    3.64      15.6  T
   4    -32.0770245 -0.198030E-07  0.395E-04    3.64      49.6  T
   5    -32.0770245 -0.184581E-08  0.165E-04    3.64     118.6  T
   6    -32.0770245 -0.358902E-09  0.633E-05    3.64     309.9  T
   7    -32.0770245 -0.861888E-11  0.251E-05    3.64     781.8  T
   8    -32.0770245 -0.262901E-11  0.595E-06    3.64    3293.4  T
   9    -32.0770245 -0.412115E-12  0.209E-06    3.64    9377.4  T
     SCC iter.                  ...        0 min,  0.074 sec
     gradient                   ...        0 min,  0.002 sec
 * total energy  :   -31.5561037 Eh     change       -0.3538587E-05 Eh
   gradient norm :     0.0003824 Eh/α   predicted    -0.1904252E-05 ( -46.19%)
   displ. norm   :     0.0428856 α      lambda       -0.1864229E-05
   maximum displ.:     0.0178696 α      in ANC's #6, #1, #9, ...

........................................................................
.............................. CYCLE   26 ..............................
........................................................................

 iter      E             dE          RMSdq      gap      omega  full diag
   1    -32.0769179 -0.320769E+02  0.140E-02    3.64       0.0  T
   2    -32.0769179 -0.307591E-07  0.805E-03    3.64       2.4  T
   3    -32.0769179 -0.424924E-08  0.937E-04    3.64      20.9  T
   4    -32.0769179 -0.469477E-09  0.249E-04    3.64      78.7  T
   5    -32.0769179 -0.631786E-09  0.840E-05    3.64     233.4  T
   6    -32.0769179 -0.633094E-11  0.450E-05    3.64     435.4  T
   7    -32.0769179 -0.270930E-10  0.167E-05    3.64    1175.7  T
   8    -32.0769179 -0.547118E-12  0.362E-06    3.64    5418.8  T
   9    -32.0769179 -0.191847E-12  0.173E-06    3.64   11336.8  T
     SCC iter.                  ...        0 min,  0.075 sec
     gradient                   ...        0 min,  0.002 sec
 * total energy  :   -31.5561052 Eh     change       -0.1565510E-05 Eh
   gradient norm :     0.0004071 Eh/α   predicted    -0.9330117E-06 ( -40.40%)
   displ. norm   :     0.0239514 α      lambda       -0.8916447E-06
   maximum displ.:     0.0121936 α      in ANC's #1, #3, #6, ...

........................................................................
.............................. CYCLE   27 ..............................
........................................................................

 iter      E             dE          RMSdq      gap      omega  full diag
   1    -32.0769298 -0.320769E+02  0.859E-03    3.64       0.0  T
   2    -32.0769298 -0.961207E-08  0.498E-03    3.64       3.9  T
   3    -32.0769298 -0.280238E-10  0.554E-04    3.64      35.4  T
   4    -32.0769298 -0.304574E-09  0.242E-04    3.64      80.9  T
   5    -32.0769298 -0.148482E-08  0.669E-05    3.64     293.3  T
   6    -32.0769298 -0.615543E-10  0.289E-05    3.64     678.4  T
   7    -32.0769298 -0.110134E-11  0.944E-06    3.64    2077.6  T
   8    -32.0769298 -0.108713E-11  0.269E-06    3.64    7279.1  T
     SCC iter.                  ...        0 min,  0.074 sec
     gradient                   ...        0 min,  0.002 sec
 * total energy  :   -31.5561061 Eh     change       -0.8813639E-06 Eh
   gradient norm :     0.0001396 Eh/α   predicted    -0.4468268E-06 ( -49.30%)
   displ. norm   :     0.0123549 α      lambda       -0.3446349E-06
   maximum displ.:     0.0085270 α      in ANC's #1, #3, #6, ...

........................................................................
.............................. CYCLE   28 ..............................
........................................................................

 iter      E             dE          RMSdq      gap      omega  full diag
   1    -32.0769282 -0.320769E+02  0.496E-03    3.64       0.0  T
   2    -32.0769282 -0.198377E-08  0.290E-03    3.64       6.8  T
   3    -32.0769282  0.732065E-09  0.271E-04    3.64      72.4  T
   4    -32.0769282 -0.759009E-09  0.143E-04    3.64     137.5  T
   5    -32.0769282 -0.458904E-09  0.359E-05    3.64     545.6  T
   6    -32.0769282 -0.686384E-11  0.179E-05    3.64    1096.1  T
   7    -32.0769282 -0.554223E-12  0.528E-06    3.64    3713.7  T
   8    -32.0769282 -0.227374E-12  0.187E-06    3.64   10488.7  T
     SCC iter.                  ...        0 min,  0.074 sec
     gradient                   ...        0 min,  0.002 sec
 * total energy  :   -31.5561065 Eh     change       -0.4084532E-06 Eh
   gradient norm :     0.0000872 Eh/α   predicted    -0.1804731E-06 ( -55.82%)
   displ. norm   :     0.0121185 α      lambda       -0.2811724E-06
   maximum displ.:     0.0088347 α      in ANC's #1, #3, #9, ...

........................................................................
.............................. CYCLE   29 ..............................
........................................................................

 iter      E             dE          RMSdq      gap      omega  full diag
   1    -32.0768976 -0.320769E+02  0.454E-03    3.64       0.0  T
   2    -32.0768976 -0.128887E-08  0.267E-03    3.64       7.4  T
   3    -32.0768976 -0.111108E-09  0.189E-04    3.64     103.9  T
   4    -32.0768976 -0.160618E-09  0.635E-05    3.64     308.7  T
   5    -32.0768976 -0.268585E-11  0.374E-05    3.64     524.4  T
   6    -32.0768976 -0.830624E-11  0.145E-05    3.64    1354.6  T
   7    -32.0768976 -0.873968E-12  0.362E-06    3.64    5412.1  T
   8    -32.0768976 -0.781597E-13  0.106E-06    3.64   18555.1  T
     SCC iter.                  ...        0 min,  0.074 sec
     gradient                   ...        0 min,  0.002 sec
 * total energy  :   -31.5561069 Eh     change       -0.3654792E-06 Eh
   gradient norm :     0.0001261 Eh/α   predicted    -0.1449143E-06 ( -60.35%)
   displ. norm   :     0.0147050 α      lambda       -0.3216173E-06
   maximum displ.:     0.0106123 α      in ANC's #1, #3, #9, ...

........................................................................
.............................. CYCLE   30 ..............................
........................................................................

 iter      E             dE          RMSdq      gap      omega  full diag
   1    -32.0768944 -0.320769E+02  0.489E-03    3.64       0.0  T
   2    -32.0768944 -0.214178E-08  0.284E-03    3.64       6.9  T
   3    -32.0768944 -0.123421E-09  0.221E-04    3.64      88.5  T
   4    -32.0768944 -0.102361E-09  0.848E-05    3.64     231.3  T
   5    -32.0768944 -0.110930E-09  0.390E-05    3.64     503.5  T
   6    -32.0768944 -0.216502E-10  0.166E-05    3.64    1178.5  T
   7    -32.0768944 -0.440536E-12  0.327E-06    3.64    6001.2  T
   8    -32.0768944 -0.852651E-13  0.137E-06    3.64   14273.3  T
     SCC iter.                  ...        0 min,  0.074 sec
     gradient                   ...        0 min,  0.002 sec
 * total energy  :   -31.5561073 Eh     change       -0.4130368E-06 Eh
   gradient norm :     0.0001370 Eh/α   predicted    -0.1629585E-06 ( -60.55%)
   displ. norm   :     0.0151152 α      lambda       -0.3060611E-06
   maximum displ.:     0.0110792 α      in ANC's #1, #3, #9, ...

........................................................................
.............................. CYCLE   31 ..............................
........................................................................

 iter      E             dE          RMSdq      gap      omega  full diag
   1    -32.0768975 -0.320769E+02  0.482E-03    3.64       0.0  T
   2    -32.0768975 -0.116746E-08  0.280E-03    3.64       7.0  T
   3    -32.0768975  0.129027E-08  0.294E-04    3.64      66.6  T
   4    -32.0768975 -0.159789E-08  0.110E-04    3.64     178.0  T
   5    -32.0768975 -0.155381E-09  0.354E-05    3.64     554.2  T
   6    -32.0768975 -0.854783E-11  0.149E-05    3.64    1316.5  T
   7    -32.0768975 -0.144951E-11  0.549E-06    3.64    3573.4  T
   8    -32.0768975 -0.355271E-12  0.146E-06    3.64   13439.9  T
     SCC iter.                  ...        0 min,  0.075 sec
     gradient                   ...        0 min,  0.002 sec
 * total energy  :   -31.5561077 Eh     change       -0.3731987E-06 Eh
   gradient norm :     0.0000951 Eh/α   predicted    -0.1576560E-06 ( -57.76%)
   displ. norm   :     0.0134045 α      lambda       -0.2129745E-06
   maximum displ.:     0.0102380 α      in ANC's #1, #3, #9, ...

........................................................................
.............................. CYCLE   32 ..............................
........................................................................

 iter      E             dE          RMSdq      gap      omega  full diag
   1    -32.0769087 -0.320769E+02  0.431E-03    3.64       0.0  T
   2    -32.0769087 -0.138487E-08  0.250E-03    3.64       7.9  T
   3    -32.0769087  0.934378E-09  0.272E-04    3.64      72.0  T
   4    -32.0769087 -0.954529E-09  0.139E-04    3.64     141.1  T
   5    -32.0769087 -0.373596E-09  0.359E-05    3.64     546.6  T
   6    -32.0769087 -0.264322E-11  0.185E-05    3.64    1059.4  T
   7    -32.0769087 -0.511591E-12  0.339E-06    3.64    5785.9  T
   8    -32.0769087 -0.106581E-12  0.149E-06    3.64   13154.7  T
     SCC iter.                  ...        0 min,  0.074 sec
     gradient                   ...        0 min,  0.002 sec
 * total energy  :   -31.5561079 Eh     change       -0.2541405E-06 Eh
   gradient norm :     0.0000446 Eh/α   predicted    -0.1078242E-06 ( -57.57%)
   displ. norm   :     0.0098127 α      lambda       -0.1236372E-06
   maximum displ.:     0.0077555 α      in ANC's #1, #3, #7, ...

........................................................................
.............................. CYCLE   33 ..............................
........................................................................

 iter      E             dE          RMSdq      gap      omega  full diag
   1    -32.0769251 -0.320769E+02  0.309E-03    3.64       0.0  T
   2    -32.0769251 -0.293795E-09  0.181E-03    3.64      10.8  T
   3    -32.0769251  0.351747E-09  0.137E-04    3.64     143.6  T
   4    -32.0769251 -0.503086E-09  0.469E-05    3.64     417.8  T
   5    -32.0769251 -0.102176E-10  0.158E-05    3.64    1243.0  T
   6    -32.0769251 -0.873968E-12  0.572E-06    3.64    3425.9  T
   7    -32.0769251 -0.412115E-12  0.169E-06    3.64   11630.0  T
     SCC iter.                  ...        0 min,  0.074 sec
     gradient                   ...        0 min,  0.002 sec
 * total energy  :   -31.5561081 Eh     change       -0.1575611E-06 Eh
   gradient norm :     0.0000517 Eh/α   predicted    -0.6424826E-07 ( -59.22%)
   displ. norm   :     0.0078342 α      lambda       -0.9411216E-07
   maximum displ.:     0.0061281 α      in ANC's #1, #3, #4, ...

........................................................................
.............................. CYCLE   34 ..............................
........................................................................

 iter      E             dE          RMSdq      gap      omega  full diag
   1    -32.0769261 -0.320769E+02  0.268E-03    3.64       0.0  T
   2    -32.0769261 -0.382421E-09  0.158E-03    3.64      12.4  T
   3    -32.0769261  0.245279E-09  0.152E-04    3.64     129.0  T
   4    -32.0769261 -0.338765E-09  0.542E-05    3.64     361.7  T
   5    -32.0769261 -0.338858E-10  0.220E-05    3.64     893.0  T
   6    -32.0769261 -0.571987E-11  0.804E-06    3.64    2439.6  T
   7    -32.0769261 -0.213163E-13  0.221E-06    3.64    8870.7  T
     SCC iter.                  ...        0 min,  0.074 sec
     gradient                   ...        0 min,  0.002 sec
 * total energy  :   -31.5561082 Eh     change       -0.1295620E-06 Eh
   gradient norm :     0.0000585 Eh/α   predicted    -0.4919099E-07 ( -62.03%)
   displ. norm   :     0.0079160 α      lambda       -0.9198480E-07
   maximum displ.:     0.0060924 α      in ANC's #1, #3, #4, ...

........................................................................
.............................. CYCLE   35 ..............................
........................................................................

 iter      E             dE          RMSdq      gap      omega  full diag
   1    -32.0769228 -0.320769E+02  0.280E-03    3.64       0.0  T
   2    -32.0769228 -0.240426E-09  0.165E-03    3.64      11.9  T
   3    -32.0769228 -0.714095E-10  0.587E-05    3.64     334.0  T
   4    -32.0769228 -0.748912E-11  0.339E-05    3.64     579.3  T
   5    -32.0769228 -0.139266E-10  0.161E-05    3.64    1221.2  T
   6    -32.0769228 -0.117240E-11  0.533E-06    3.64    3677.3  T
   7    -32.0769228 -0.639488E-13  0.146E-06    3.64   13417.8  T
     SCC iter.                  ...        0 min,  0.074 sec
     gradient                   ...        0 min,  0.002 sec
 * total energy  :   -31.5561083 Eh     change       -0.1250490E-06 Eh
   gradient norm :     0.0000478 Eh/α   predicted    -0.4793861E-07 ( -61.66%)
   displ. norm   :     0.0069262 α      lambda       -0.7115539E-07
   maximum displ.:     0.0055087 α      in ANC's #1, #3, #4, ...

........................................................................
.............................. CYCLE   36 ..............................
........................................................................

 iter      E             dE          RMSdq      gap      omega  full diag
   1    -32.0769198 -0.320769E+02  0.261E-03    3.64       0.0  T
   2    -32.0769198 -0.238821E-09  0.154E-03    3.64      12.8  T
   3    -32.0769198 -0.181188E-10  0.803E-05    3.64     244.2  T
   4    -32.0769198 -0.647091E-10  0.309E-05    3.64     634.9  T
   5    -32.0769198 -0.536460E-11  0.163E-05    3.64    1205.8  T
   6    -32.0769198 -0.117240E-11  0.656E-06    3.64    2991.6  T
   7    -32.0769198 -0.277112E-12  0.179E-06    3.64   10942.9  T
     SCC iter.                  ...        0 min,  0.075 sec
     gradient                   ...        0 min,  0.002 sec
 * total energy  :   -31.5561084 Eh     change       -0.9061140E-07 Eh
   gradient norm :     0.0000266 Eh/α   predicted    -0.3629422E-07 ( -59.95%)
   displ. norm   :     0.0046329 α      lambda       -0.3631171E-07
   maximum displ.:     0.0039971 α      in ANC's #1, #4, #3, ...

........................................................................
.............................. CYCLE   37 ..............................
........................................................................

 iter      E             dE          RMSdq      gap      omega  full diag
   1    -32.0769181 -0.320769E+02  0.188E-03    3.64       0.0  T
   2    -32.0769181 -0.123997E-09  0.110E-03    3.64      17.8  T
   3    -32.0769181  0.886047E-11  0.593E-05    3.64     330.8  T
   4    -32.0769181 -0.384119E-10  0.301E-05    3.64     652.1  T
   5    -32.0769181 -0.146159E-10  0.131E-05    3.64    1492.7  T
   6    -32.0769181 -0.746070E-12  0.479E-06    3.64    4091.9  T
   7    -32.0769181 -0.355271E-13  0.114E-06    3.64   17145.3  T
     SCC iter.                  ...        0 min,  0.074 sec
     gradient                   ...        0 min,  0.002 sec
 * total energy  :   -31.5561085 Eh     change       -0.5330120E-07 Eh
   gradient norm :     0.0000175 Eh/α   predicted    -0.2013418E-07 ( -62.23%)
   displ. norm   :     0.0046329 α      lambda        0.0000000E+00
   maximum displ.:     0.0039971 α      in ANC's #1, #4, #3, ...

........................................................................
.............................. CYCLE   38 ..............................
........................................................................

 iter      E             dE          RMSdq      gap      omega  full diag
   1    -32.0769161 -0.320769E+02  0.188E-03    3.64       0.0  T
   2    -32.0769161 -0.124139E-09  0.110E-03    3.64      17.8  T
   3    -32.0769161  0.953548E-11  0.594E-05    3.64     330.1  T
   4    -32.0769161 -0.390941E-10  0.301E-05    3.64     650.8  T
   5    -32.0769161 -0.147580E-10  0.131E-05    3.64    1492.4  T
   6    -32.0769161 -0.753175E-12  0.479E-06    3.64    4091.6  T
   7    -32.0769161 -0.639488E-13  0.114E-06    3.64   17133.0  T
     SCC iter.                  ...        0 min,  0.074 sec
     gradient                   ...        0 min,  0.002 sec
 * total energy  :   -31.5561085 Eh     change       -0.3966588E-07 Eh
   gradient norm :     0.0000334 Eh/α   predicted    -0.4832335E-08 ( -87.82%)
   displ. norm   :     0.0046329 α      lambda        0.0000000E+00
   maximum displ.:     0.0039971 α      in ANC's #1, #4, #3, ...

   *** GEOMETRY OPTIMIZATION CONVERGED AFTER 38 ITERATIONS ***

------------------------------------------------------------------------
 total energy gain   :        -0.0123429 Eh       -7.7453 kcal/mol
 total RMSD          :         0.8883404 a0        0.4701 Å
 total power (kW/mol):        -0.8527991 (step)  -10.8841 (real)
------------------------------------------------------------------------

 ANCopt (total)                0 d,  0 h,  0 min,  2.977 sec
 optimizer setup                ...        0 min,  0.000 sec (  0.003%)
 model hessian                  ...        0 min,  0.014 sec (  0.482%)
 ANC generation                 ...        0 min,  0.001 sec (  0.023%)
 coordinate transformation      ...        0 min,  0.000 sec (  0.012%)
 single point calculation       ...        0 min,  2.956 sec ( 99.266%)
 optimization log               ...        0 min,  0.002 sec (  0.084%)
 hessian update                 ...        0 min,  0.001 sec (  0.019%)
 rational function              ...        0 min,  0.002 sec (  0.081%)

================
 final structure:
================
26
 xtb: 6.7.0 (08769fc)
P            1.64090138944905       -0.12025627779103       -2.95933030236746
C            1.57699844167722        0.71115224563699       -1.28877194653986
H            1.50942915508343       -0.08569968849613       -0.54269559443434
H            2.49670559269673        1.27210272829190       -1.10208571554861
C            0.35989664116888        1.61905590464060       -1.17887630264793
H           -0.55157440644131        1.05605065552462       -1.37070835728294
H            0.41847931764991        2.42713390833495       -1.90645941423156
H            0.29361269167285        2.05438989162672       -0.18299946742512
C            1.87912834414086        1.35888650749532       -4.03052241124943
C            2.78156644594436        2.38251443981983       -3.76502670010951
C            1.09331765020458        1.43555157230150       -5.17507881536202
C            2.89332488760428        3.45676107569776       -4.62830588263262
C            1.20538244548072        2.50918762527250       -6.04020798747315
C            2.10723298282694        3.52307232087321       -5.76708032599979
H            3.40160317139444        2.35121146275204       -2.88036722316280
H            0.38890534925934        0.64098331956120       -5.37943869617428
H            3.59730336741732        4.24801349221487       -4.41186350084765
H            0.58873433449681        2.55659457188249       -6.92620047599154
H            2.19798736247347        4.36482824651886       -6.43810927142505
C            3.41598390640134       -0.70232164252601       -2.92818715796964
H            3.67633519002252       -0.94918573688150       -3.96173918775725
H            4.07363903320212        0.10644999002204       -2.59854009354022
C            3.59195863913622       -1.93029279917905       -2.04507738846062
H            2.91676010892693       -2.72354828008863       -2.35972761174408
H            3.37880945355484       -1.69403293865210       -1.00468808970255
H            4.61343450456100       -2.30212659485838       -2.10844807992103
 
 Bond Distances (Angstroems)
 ---------------------------
P1-C2=1.8671         P1-C9=1.8418         P1-C20=1.8683        C2-P1=1.8671         C2-H3=1.0937         C2-H4=1.0933         
C2-C5=1.5224         H3-C2=1.0937         H4-C2=1.0933         C5-C2=1.5224         C5-H6=1.0884         C5-H7=1.0889         
C5-H8=1.0889         H6-C5=1.0884         H7-C5=1.0889         H8-C5=1.0889         C9-P1=1.8418         C9-C10=1.3902        
C9-C11=1.3905        C10-C9=1.3902        C10-C12=1.3827       C10-H15=1.0808       C11-C9=1.3905        C11-C13=1.3834       
C11-H16=1.0813       C12-C10=1.3827       C12-C14=1.3853       C12-H17=1.0810       C13-C11=1.3834       C13-C14=1.3842       
C13-H18=1.0805       C14-C12=1.3853       C14-C13=1.3842       C14-H19=1.0803       H15-C10=1.0808       H16-C11=1.0813       
H17-C12=1.0810       H18-C13=1.0805       H19-C14=1.0803       C20-P1=1.8683        C20-H21=1.0941       C20-H22=1.0933       
C20-C23=1.5227       H21-C20=1.0941       H22-C20=1.0933       C23-C20=1.5227       C23-H24=1.0882       C23-H25=1.0880       
C23-H26=1.0889       H24-C23=1.0882       H25-C23=1.0880       H26-C23=1.0889       
 C  H  Rav=1.0873 sigma=0.0050  Rmin=1.0803  Rmax=1.0941    15
 C  C  Rav=1.4202 sigma=0.0592  Rmin=1.3827  Rmax=1.5227     8
 P  C  Rav=1.8591 sigma=0.0123  Rmin=1.8418  Rmax=1.8683     3
 
 selected bond angles (degree)
 --------------------
C9-P1-C2= 99.62                C20-P1-C2= 98.99               C20-P1-C9= 97.87               H3-C2-P1=106.74                
H4-C2-P1=110.64                H4-C2-H3=108.02                C5-C2-P1=110.95                C5-C2-H3=109.63                
C5-C2-H4=110.74                H6-C5-C2=110.38                H7-C5-C2=110.57                H7-C5-H6=108.13                
H8-C5-C2=110.68                H8-C5-H6=108.48                H8-C5-H7=108.52                C10-C9-P1=124.35               
C11-C9-P1=116.74               C11-C9-C10=118.91              C12-C10-C9=120.35              H15-C10-C9=120.49              
H15-C10-C12=119.16             
 
 selected dihedral angles (degree)
 ---------------------------------
H3-C2-P1-C9=184.10            H3-C2-P1-C20=283.74           H4-C2-P1-C9=301.38            H4-C2-P1-C20= 41.03           
C5-C2-P1-C9= 64.71            C5-C2-P1-C20=164.36           H6-C5-C2-P1= 56.44            H6-C5-C2-H3=298.80            
H6-C5-C2-H4=179.71            H7-C5-C2-P1=296.84            H7-C5-C2-H3=179.20            H7-C5-C2-H4= 60.11            
H8-C5-C2-P1=176.56            H8-C5-C2-H3= 58.92            H8-C5-C2-H4=299.83            C10-C9-P1-C2= 45.47           
C10-C9-P1-C20=304.89          C11-C9-P1-C2=225.48           C11-C9-P1-C20=124.90          C12-C10-C9-P1=179.96          
C12-C10-C9-C11=359.95         H15-C10-C9-P1=359.72          H15-C10-C9-C11=179.71         
           -------------------------------------------------
          |                Final Singlepoint                |
           -------------------------------------------------

          ...................................................
          :                      SETUP                      :
          :.................................................:
          :  # basis functions                  65          :
          :  # atomic orbitals                  64          :
          :  # shells                           38          :
          :  # electrons                        60          :
          :  max. iterations                  5000          :
          :  Hamiltonian                  GFN2-xTB          :
          :  restarted?                      false          :
          :  GBSA solvation                  false          :
          :  PC potential                    false          :
          :  electronic temp.          300.0000000     K    :
          :  accuracy                    0.0100000          :
          :  -> integral cutoff          0.4500000E+02      :
          :  -> integral neglect         0.1000000E-09      :
          :  -> SCF convergence          0.1000000E-07 Eh   :
          :  -> wf. convergence          0.1000000E-05 e    :
          :  Broyden damping             0.4000000          :
          :  net charge                          0          :
          :  unpaired electrons                  0          :
          ...................................................

 iter      E             dE          RMSdq      gap      omega  full diag
   1    -32.0769161 -0.320769E+02  0.373E-07    3.64       0.0  T
   2    -32.0769161  0.142109E-13  0.205E-07    3.64   95895.9  T
   3    -32.0769161 -0.284217E-13  0.989E-08    3.64  100000.0  T

   *** convergence criteria satisfied after 3 iterations ***

         #    Occupation            Energy/Eh            Energy/eV
      -------------------------------------------------------------
         1        2.0000           -0.6578472             -17.9009
       ...           ...                  ...                  ...
        24        2.0000           -0.4375944             -11.9075
        25        2.0000           -0.4232773             -11.5180
        26        2.0000           -0.4184247             -11.3859
        27        2.0000           -0.4045489             -11.0083
        28        2.0000           -0.4044526             -11.0057
        29        2.0000           -0.3968239             -10.7981
        30        2.0000           -0.3670037              -9.9867 (HOMO)
        31                         -0.2333128              -6.3488 (LUMO)
        32                         -0.2229988              -6.0681
        33                         -0.1563875              -4.2555
        34                         -0.1498031              -4.0764
        35                         -0.0930108              -2.5310
       ...                                ...                  ...
        64                          0.7862156              21.3940
      -------------------------------------------------------------
                  HL-Gap            0.1336909 Eh            3.6379 eV
             Fermi-level           -0.3001582 Eh           -8.1677 eV

 SCC (total)                   0 d,  0 h,  0 min,  0.075 sec
 SCC setup                      ...        0 min,  0.000 sec (  0.070%)
 Dispersion                     ...        0 min,  0.000 sec (  0.107%)
 classical contributions        ...        0 min,  0.000 sec (  0.012%)
 integral evaluation            ...        0 min,  0.001 sec (  0.951%)
 iterations                     ...        0 min,  0.072 sec ( 96.271%)
 molecular gradient             ...        0 min,  0.002 sec (  2.443%)
 printout                       ...        0 min,  0.000 sec (  0.121%)

         :::::::::::::::::::::::::::::::::::::::::::::::::::::
         ::                     SUMMARY                     ::
         :::::::::::::::::::::::::::::::::::::::::::::::::::::
         :: total energy             -31.556108521701 Eh    ::
         :: gradient norm              0.000033356957 Eh/a0 ::
         :: HOMO-LUMO gap              3.637913776443 eV    ::
         ::.................................................::
         :: SCC energy               -32.076729734276 Eh    ::
         :: -> isotropic ES            0.004216850818 Eh    ::
         :: -> anisotropic ES          0.005973932333 Eh    ::
         :: -> anisotropic XC          0.021484881578 Eh    ::
         :: -> dispersion             -0.023675859850 Eh    ::
         :: repulsion energy           0.520621212575 Eh    ::
         :: add. restraining           0.000000000000 Eh    ::
         :: total charge              -0.000000000000 e     ::
         :::::::::::::::::::::::::::::::::::::::::::::::::::::

           ------------------------------------------------- 
          |                Numerical Hessian                |
           ------------------------------------------------- 
step length          :   0.00500
SCC accuracy         :   0.30000
Hessian scale factor :   1.00000
frozen atoms in %    :   0.00000    0
RMS gradient         :   0.00003
estimated CPU  time      1.11 min
estimated wall time      0.13 min

writing file <hessian>.

 projected vibrational frequencies (cm⁻¹)
eigval :       -0.00     0.00     0.00     0.00     0.00     0.00
eigval :       19.83    51.27    71.54    95.05   141.34   166.14
eigval :      203.57   215.31   224.64   266.22   311.52   329.21
eigval :      363.39   426.32   450.15   586.03   655.59   660.56
eigval :      686.50   701.45   738.96   754.63   777.70   874.73
eigval :      898.92   926.59   932.74   968.78   974.96   997.10
eigval :     1013.10  1016.93  1071.37  1076.68  1083.13  1117.41
eigval :     1121.37  1181.65  1198.80  1220.80  1226.02  1250.22
eigval :     1255.30  1278.37  1315.52  1409.41  1411.24  1423.39
eigval :     1445.27  1450.07  1458.31  1497.31  1498.59  1501.82
eigval :     1502.25  1579.88  1589.69  2930.08  2935.83  2947.15
eigval :     2950.31  3013.56  3014.22  3019.81  3026.72  3029.37
eigval :     3033.62  3063.11  3064.03  3071.81  3077.45  3087.88
           -------------------------------------------------
          |                Property Printout                |
           -------------------------------------------------

    * Orbital Energies and Occupations

         #    Occupation            Energy/Eh            Energy/eV
      -------------------------------------------------------------
         1        2.0000           -0.6578472             -17.9009
       ...           ...                  ...                  ...
        18        2.0000           -0.4774587             -12.9923
        19        2.0000           -0.4745344             -12.9127
        20        2.0000           -0.4629003             -12.5962
        21        2.0000           -0.4620829             -12.5739
        22        2.0000           -0.4534641             -12.3394
        23        2.0000           -0.4448464             -12.1049
        24        2.0000           -0.4375944             -11.9075
        25        2.0000           -0.4232773             -11.5180
        26        2.0000           -0.4184247             -11.3859
        27        2.0000           -0.4045489             -11.0083
        28        2.0000           -0.4044526             -11.0057
        29        2.0000           -0.3968239             -10.7981
        30        2.0000           -0.3670037              -9.9867 (HOMO)
        31                         -0.2333128              -6.3488 (LUMO)
        32                         -0.2229988              -6.0681
        33                         -0.1563875              -4.2555
        34                         -0.1498031              -4.0764
        35                         -0.0930108              -2.5310
        36                          0.0043563               0.1185
        37                          0.0552935               1.5046
        38                          0.0890495               2.4232
        39                          0.0958116               2.6072
        40                          0.1356900               3.6923
        41                          0.1377006               3.7470
       ...                                ...                  ...
        64                          0.7862156              21.3940
      -------------------------------------------------------------
                  HL-Gap            0.1336909 Eh            3.6379 eV
             Fermi-level           -0.3001582 Eh           -8.1677 eV

     #   Z          covCN         q      C6AA      α(0)
     1  15 P        3.046    -0.116   165.502    23.111
     2   6 C        3.748    -0.045    21.446     6.605
     3   1 H        0.926     0.039     2.464     2.455
     4   1 H        0.925     0.042     2.424     2.435
     5   6 C        3.820    -0.096    22.314     6.722
     6   1 H        0.925     0.041     2.435     2.440
     7   1 H        0.925     0.035     2.511     2.478
     8   1 H        0.925     0.032     2.555     2.500
     9   6 C        2.916     0.008    27.844     8.653
    10   6 C        2.960    -0.028    28.704     8.788
    11   6 C        3.016    -0.030    28.735     8.793
    12   6 C        2.919    -0.031    28.779     8.797
    13   6 C        2.918    -0.030    28.741     8.791
    14   6 C        2.920    -0.029    28.731     8.790
    15   1 H        0.926     0.032     2.561     2.502
    16   1 H        0.925     0.040     2.453     2.449
    17   1 H        0.926     0.028     2.611     2.527
    18   1 H        0.926     0.030     2.580     2.512
    19   1 H        0.926     0.029     2.596     2.519
    20   6 C        3.748    -0.046    21.473     6.609
    21   1 H        0.926     0.038     2.469     2.457
    22   1 H        0.925     0.043     2.413     2.429
    23   6 C        3.812    -0.098    22.355     6.730
    24   1 H        0.925     0.042     2.423     2.434
    25   1 H        0.925     0.037     2.494     2.470
    26   1 H        0.925     0.033     2.539     2.492

 Mol. C6AA /au·bohr⁶  :       7598.616676
 Mol. C8AA /au·bohr⁸  :     202572.151469
 Mol. α(0) /au        :        139.488486


Wiberg/Mayer (AO) data.
largest (>0.10) Wiberg bond orders for each atom

 ---------------------------------------------------------------------------
     #   Z sym  total        # sym  WBO       # sym  WBO       # sym  WBO
 ---------------------------------------------------------------------------
     1  15 P    3.345 --     2 C    1.027    20 C    1.022     9 C    1.006
     2   6 C    3.993 --     1 P    1.027     5 C    1.016     3 H    0.958
                             4 H    0.950
     3   1 H    0.998 --     2 C    0.958
     4   1 H    0.998 --     2 C    0.950
     5   6 C    3.997 --     2 C    1.016     8 H    0.985     6 H    0.984
                             7 H    0.984
     6   1 H    0.998 --     5 C    0.984
     7   1 H    0.999 --     5 C    0.984
     8   1 H    0.999 --     5 C    0.985
     9   6 C    3.983 --    11 C    1.409    10 C    1.400     1 P    1.006
                            14 C    0.108
    10   6 C    3.992 --    12 C    1.450     9 C    1.400    15 H    0.961
                            13 C    0.111
    11   6 C    3.991 --    13 C    1.443     9 C    1.409    16 H    0.964
                            12 C    0.108
    12   6 C    3.993 --    10 C    1.450    14 C    1.432    17 H    0.970
                            11 C    0.108
    13   6 C    3.992 --    11 C    1.443    14 C    1.441    18 H    0.970
                            10 C    0.111
    14   6 C    3.989 --    13 C    1.441    12 C    1.432    19 H    0.971
                             9 C    0.108
    15   1 H    0.999 --    10 C    0.961
    16   1 H    0.998 --    11 C    0.964
    17   1 H    0.999 --    12 C    0.970
    18   1 H    0.999 --    13 C    0.970
    19   1 H    0.998 --    14 C    0.971
    20   6 C    3.995 --     1 P    1.022    23 C    1.016    21 H    0.959
                            22 H    0.951
    21   1 H    0.998 --    20 C    0.959
    22   1 H    0.998 --    20 C    0.951
    23   6 C    3.996 --    20 C    1.016    25 H    0.985    24 H    0.985
                            26 H    0.984
    24   1 H    0.998 --    23 C    0.985
    25   1 H    0.999 --    23 C    0.985
    26   1 H    0.998 --    23 C    0.984
 ---------------------------------------------------------------------------

Topologies differ in total number of bonds
Writing topology from bond orders to xtbtopo.mol

molecular dipole:
                 x           y           z       tot (Debye)
 q only:        0.185       0.092       0.148
   full:        0.477       0.367       0.229       1.637
molecular quadrupole (traceless):
                xx          xy          yy          xz          yz          zz
 q only:        1.824       0.221       0.091      -0.016      -1.231      -1.914
  q+dip:        3.150       4.296      -0.186       0.044      -4.687      -2.964
   full:        3.488       1.939      -0.427      -1.682      -4.184      -3.061

           -------------------------------------------------
          |                Geometry Summary                 |
           -------------------------------------------------

      molecular mass/u    :      166.2002322
   center of mass at/Å    :        2.0166517       1.0963790      -3.4761759
  moments of inertia/u·Å² :        0.3316691E+03   0.8223062E+03   0.9277159E+03
rotational constants/cm⁻¹ :        0.5082666E-01   0.2050043E-01   0.1817112E-01

 * 23 selected distances

     #   Z          #   Z                                           value/Å
     2   6 C        3   1 H                                       1.0936950
     2   6 C        4   1 H                                       1.0933337
     2   6 C        5   6 C                                       1.5224005
     5   6 C        6   1 H                                       1.0883722
     5   6 C        7   1 H                                       1.0889442
     5   6 C        8   1 H                                       1.0888894
     9   6 C       10   6 C                                       1.3902147
     9   6 C       11   6 C                                       1.3904624
    10   6 C       12   6 C                                       1.3826594
    11   6 C       13   6 C                                       1.3833661
    12   6 C       14   6 C                                       1.3853322
    13   6 C       14   6 C                                       1.3841588
    10   6 C       15   1 H                                       1.0807627
    11   6 C       16   1 H                                       1.0813411
    12   6 C       17   1 H                                       1.0809781
    13   6 C       18   1 H                                       1.0805023
    14   6 C       19   1 H                                       1.0803099 (min)
    20   6 C       21   1 H                                       1.0940542
    20   6 C       22   1 H                                       1.0932928
    20   6 C       23   6 C                                       1.5227487 (max)
    23   6 C       24   1 H                                       1.0881876
    23   6 C       25   1 H                                       1.0879620
    23   6 C       26   1 H                                       1.0888936

 * 2 distinct bonds (by element types)

   Z      Z             #   av. dist./Å        max./Å        min./Å
   1 H    6 C          15     1.0873013     1.0940542     1.0803099
   6 C    6 C           8     1.4201679     1.5227487     1.3826594

           -------------------------------------------------
          |               Frequency Printout                |
           -------------------------------------------------
 projected vibrational frequencies (cm⁻¹)
eigval :       -0.00     0.00     0.00     0.00     0.00     0.00
eigval :       19.83    51.27    71.54    95.05   141.34   166.14
eigval :      203.57   215.31   224.64   266.22   311.52   329.21
eigval :      363.39   426.32   450.15   586.03   655.59   660.56
eigval :      686.50   701.45   738.96   754.63   777.70   874.73
eigval :      898.92   926.59   932.74   968.78   974.96   997.10
eigval :     1013.10  1016.93  1071.37  1076.68  1083.13  1117.41
eigval :     1121.37  1181.65  1198.80  1220.80  1226.02  1250.22
eigval :     1255.30  1278.37  1315.52  1409.41  1411.24  1423.39
eigval :     1445.27  1450.07  1458.31  1497.31  1498.59  1501.82
eigval :     1502.25  1579.88  1589.69  2930.08  2935.83  2947.15
eigval :     2950.31  3013.56  3014.22  3019.81  3026.72  3029.37
eigval :     3033.62  3063.11  3064.03  3071.81  3077.45  3087.88
 reduced masses (amu)
   1: 11.84   2: 14.03   3: 11.61   4: 13.25   5: 13.05   6: 13.03   7:  9.95   8:  9.93
   9:  8.93  10:  9.42  11:  8.26  12:  6.56  13:  7.62  14:  3.87  15:  8.58  16:  9.80
  17: 13.35  18: 12.90  19:  8.83  20: 20.78  21: 10.45  22: 11.18  23: 11.81  24: 11.73
  25: 14.13  26: 15.26  27:  4.20  28:  4.12  29:  5.05  30:  3.30  31:  3.54  32:  4.19
  33:  3.02  34:  9.83  35:  3.64  36:  3.18  37:  3.67  38:  4.26  39:  9.62  40:  9.31
  41:  7.88  42:  7.42  43:  5.60  44:  1.33  45:  1.95  46:  3.69  47:  3.34  48:  4.35
  49:  4.27  50:  3.39  51: 11.95  52:  2.94  53:  2.95  54:  8.60  55:  2.38  56:  2.23
  57:  7.79  58:  1.52  59:  1.54  60:  1.55  61:  1.55  62: 11.45  63: 11.46  64:  1.91
  65:  1.93  66:  1.53  67:  1.56  68:  1.90  69:  1.86  70:  1.85  71:  1.94  72:  1.41
  73:  1.34  74:  1.76  75:  1.79  76:  1.82  77:  1.87  78:  1.92
 IR intensities (km·mol⁻¹)
   1:  0.10   2:  0.04   3:  0.07   4:  0.18   5:  0.09   6:  0.07   7:  0.22   8:  0.01
   9:  0.07  10:  0.08  11:  0.27  12:  0.20  13:  0.13  14:  0.44  15:  0.19  16:  0.40
  17:  0.05  18:  0.26  19:  0.01  20:  9.10  21:  2.72  22:  0.09  23:  5.11  24:  4.92
  25: 10.84  26: 47.93  27:  6.94  28: 18.85  29: 22.90  30:  0.13  31:  0.04  32:  0.09
  33:  0.00  34:  2.40  35:  1.76  36:  4.39  37:  2.54  38:  2.48  39:  2.65  40:  4.67
  41:  0.17  42:  4.26  43:  3.65  44:  0.02  45:  0.64  46:  1.34  47:  2.47  48:  6.57
  49:  7.93  50:  1.42  51:  0.90  52:  1.94  53:  1.88  54:  1.66  55:  0.46  56:  0.22
  57:  0.45  58:  2.38  59:  3.04  60:  1.95  61:  0.78  62:  0.57  63:  0.44  64:  6.92
  65: 36.22  66:  9.66  67: 28.62  68: 48.25  69: 49.29  70: 32.41  71: 30.98  72: 17.90
  73: 24.42  74: 11.73  75:  5.22  76: 11.00  77: 86.23  78: 61.82
 Raman intensities (Ä⁴*amu⁻¹)
   1:  0.00   2:  0.00   3:  0.00   4:  0.00   5:  0.00   6:  0.00   7:  0.00   8:  0.00
   9:  0.00  10:  0.00  11:  0.00  12:  0.00  13:  0.00  14:  0.00  15:  0.00  16:  0.00
  17:  0.00  18:  0.00  19:  0.00  20:  0.00  21:  0.00  22:  0.00  23:  0.00  24:  0.00
  25:  0.00  26:  0.00  27:  0.00  28:  0.00  29:  0.00  30:  0.00  31:  0.00  32:  0.00
  33:  0.00  34:  0.00  35:  0.00  36:  0.00  37:  0.00  38:  0.00  39:  0.00  40:  0.00
  41:  0.00  42:  0.00  43:  0.00  44:  0.00  45:  0.00  46:  0.00  47:  0.00  48:  0.00
  49:  0.00  50:  0.00  51:  0.00  52:  0.00  53:  0.00  54:  0.00  55:  0.00  56:  0.00
  57:  0.00  58:  0.00  59:  0.00  60:  0.00  61:  0.00  62:  0.00  63:  0.00  64:  0.00
  65:  0.00  66:  0.00  67:  0.00  68:  0.00  69:  0.00  70:  0.00  71:  0.00  72:  0.00
  73:  0.00  74:  0.00  75:  0.00  76:  0.00  77:  0.00  78:  0.00
 output can be read by thermo (or use thermo option).
 writing <g98.out> molden fake output.
 recommended (thermochemical) frequency scaling factor: 1.0
           -------------------------------------------------
          |             Thermodynamic Functions             |
           -------------------------------------------------

Refinement of some symmetry elements was terminated before convergence was reached.
Some symmetry elements may remain unidentified.
Molecule has no symmetry elements
It seems to be the C1 point group
c1  symmetry found (for desy threshold:  0.10E+00) used in thermo

          ...................................................
          :                      SETUP                      :
          :.................................................:
          :  # frequencies                          72      :
          :  # imaginary freq.                       0      :
          :  linear?                             false      :
          :  only rotor calc.                    false      :
          :  symmetry                               c1      :
          :  rotational number                       1      :
          :  scaling factor                  1.0000000      :
          :  rotor cutoff                   50.0000000 cm⁻¹ :
          :  imag. cutoff                  -20.0000000 cm⁻¹ :
          :.................................................:

    mode    ω/cm⁻¹     T·S(HO)/kcal·mol⁻¹    T·S(FR)/kcal·mol⁻¹   T·S(vib)
   ------------------------------------------------------------------------
       1     19.83    -1.98306 (  2.41%)    -1.33017 ( 97.59%)    -1.34593
       2     51.27    -1.42152 ( 52.51%)    -1.04898 ( 47.49%)    -1.24458
       3     71.54    -1.22558 ( 80.73%)    -0.95034 ( 19.27%)    -1.17255
       4     95.05    -1.05941 ( 92.89%)    -0.86616 (  7.11%)    -1.04567
       5    141.34    -0.83056 ( 98.46%)    -0.74867 (  1.54%)    -0.82930
       6    166.14    -0.73903 ( 99.19%)    -0.70078 (  0.81%)    -0.73872
       7    203.57    -0.62628 ( 99.64%)    -0.64059 (  0.36%)    -0.62633
       8    215.31    -0.59577 ( 99.71%)    -0.62399 (  0.29%)    -0.59585
       9    224.64    -0.57287 ( 99.76%)    -0.61143 (  0.24%)    -0.57296
      10    266.22    -0.48320 ( 99.88%)    -0.56112 (  0.12%)    -0.48329
   ------------------------------------------------------------------------

   temp. (K)  partition function   enthalpy   heat capacity  entropy
                                   cal/mol     cal/K/mol   cal/K/mol   J/K/mol
 298.15  VIB  0.348E+05             6243.482     39.217     38.766
         ROT  0.122E+07              888.752      2.981     30.823
         INT  0.423E+11             7132.235     42.198     69.589
         TR   0.207E+28             1481.254      4.968     41.214
         TOT                        8613.4884    47.1659   110.8027   463.5986

       T/K    H(0)-H(T)+PV         H(T)/Eh          T*S/Eh         G(T)/Eh
   ------------------------------------------------------------------------
    298.15    0.137265E-01    0.232270E+00    0.526460E-01    0.179624E+00
   ------------------------------------------------------------------------

         :::::::::::::::::::::::::::::::::::::::::::::::::::::
         ::                  THERMODYNAMIC                  ::
         :::::::::::::::::::::::::::::::::::::::::::::::::::::
         :: total free energy         -31.376484355925 Eh   ::
         ::.................................................::
         :: total energy              -31.556108521701 Eh   ::
         :: zero point energy           0.218543649264 Eh   ::
         :: G(RRHO) w/o ZPVE           -0.038919483488 Eh   ::
         :: G(RRHO) contrib.            0.179624165776 Eh   ::
         :::::::::::::::::::::::::::::::::::::::::::::::::::::

optimized geometry written to: xtbopt.xyz


           -------------------------------------------------
          | TOTAL ENERGY              -31.556108521701 Eh   |
          | TOTAL ENTHALPY            -31.323838404874 Eh   |
          | TOTAL FREE ENERGY         -31.376484355925 Eh   |
          | GRADIENT NORM               0.000033357785 Eh/α |
          | HOMO-LUMO GAP               3.637913761190 eV   |
           -------------------------------------------------

------------------------------------------------------------------------
 * finished run on 2025/07/14 at 11:30:14.806     
------------------------------------------------------------------------
 total:
 * wall-time:     0 d,  0 h,  0 min,  6.451 sec
 *  cpu-time:     0 d,  0 h,  1 min,  4.062 sec
 * ratio c/w:     9.931 speedup
 SCF:
 * wall-time:     0 d,  0 h,  0 min,  0.088 sec
 *  cpu-time:     0 d,  0 h,  0 min,  1.051 sec
 * ratio c/w:    11.952 speedup
 ANC optimizer:
 * wall-time:     0 d,  0 h,  0 min,  3.053 sec
 *  cpu-time:     0 d,  0 h,  0 min, 36.467 sec
 * ratio c/w:    11.944 speedup
 analytical hessian:
 * wall-time:     0 d,  0 h,  0 min,  3.300 sec
 *  cpu-time:     0 d,  0 h,  0 min, 26.444 sec
 * ratio c/w:     8.013 speedup

