      -----------------------------------------------------------      
     |                   =====================                   |     
     |                           x T B                           |     
     |                   =====================                   |     
     |                         S. Grimme                         |     
     |          Mulliken Center for Theoretical Chemistry        |     
     |                    University of Bonn                     |     
      -----------------------------------------------------------      

   * xtb version 6.7.0 (08769fc) compiled by 'albert@albert-system' on 2024-03-04

   xtb is free software: you can redistribute it and/or modify it under
   the terms of the GNU Lesser General Public License as published by
   the Free Software Foundation, either version 3 of the License, or
   (at your option) any later version.
   
   xtb is distributed in the hope that it will be useful,
   but WITHOUT ANY WARRANTY; without even the implied warranty of
   MERCHANTABILITY or FITNESS FOR A PARTICULAR PURPOSE.  See the
   GNU Lesser General Public License for more details.
   
   Cite this work as:
   * C. Bannwarth, E. Caldeweyher, S. Ehlert, A. Hansen, P. Pracht,
     J. Seibert, S. Spicher, S. Grimme, WIREs Comput. Mol. Sci., 2020, 11,
     e01493. DOI: 10.1002/wcms.1493
   
   for GFN2-xTB:
   * C. Bannwarth, S. Ehlert and S. Grimme., J. Chem. Theory Comput., 2019,
     15, 1652-1671. DOI: 10.1021/acs.jctc.8b01176
   for GFN1-xTB:
   * S. Grimme, C. Bannwarth, P. Shushkov, J. Chem. Theory Comput., 2017,
     13, 1989-2009. DOI: 10.1021/acs.jctc.7b00118
   for GFN0-xTB:
   * P. Pracht, E. Caldeweyher, S. Ehlert, S. Grimme, ChemRxiv, 2019, preprint.
     DOI: 10.26434/chemrxiv.8326202.v1
   for GFN-FF:
   * S. Spicher and S. Grimme, Angew. Chem. Int. Ed., 2020, 59, 15665-15673.
     DOI: 10.1002/anie.202004239
   
   for ALPB and GBSA implicit solvation:
   * S. Ehlert, M. Stahn, S. Spicher, S. Grimme, J. Chem. Theory Comput.,
     2021, 17, 4250-4261. DOI: 10.1021/acs.jctc.1c00471
   
   for ddCOSMO and CPCM-X implicit solvation:
   * M. Stahn, S. Ehlert, S. Grimme, J. Phys. Chem. A,
     2023, XX, XXXX-XXXX. DOI: 10.1021/acs.jpca.3c04382
   
   for DFT-D4:
   * E. Caldeweyher, C. Bannwarth and S. Grimme, J. Chem. Phys., 2017,
     147, 034112. DOI: 10.1063/1.4993215
   * E. Caldeweyher, S. Ehlert, A. Hansen, H. Neugebauer, S. Spicher,
     C. Bannwarth and S. Grimme, J. Chem. Phys., 2019, 150, 154122.
     DOI: 10.1063/1.5090222
   * E. Caldeweyher, J.-M. Mewes, S. Ehlert and S. Grimme, Phys. Chem. Chem. Phys.
     2020, 22, 8499-8512. DOI: 10.1039/D0CP00502A
   
   for sTDA-xTB:
   * S. Grimme and C. Bannwarth, J. Chem. Phys., 2016, 145, 054103.
     DOI: 10.1063/1.4959605
   
   in the mass-spec context:
   * V. Asgeirsson, C. Bauer and S. Grimme, Chem. Sci., 2017, 8, 4879.
     DOI: 10.1039/c7sc00601b
   * J. Koopman and S. Grimme, ACS Omega 2019, 4, 12, 15120-15133.
     DOI: 10.1021/acsomega.9b02011
   
   for metadynamics refer to:
   * S. Grimme, J. Chem. Theory Comput., 2019, 155, 2847-2862
     DOI: 10.1021/acs.jctc.9b00143
   
   for SPH calculations refer to:
   * S. Spicher and S. Grimme, J. Chem. Theory Comput., 2021, 17, 1701-1714
     DOI: 10.1021/acs.jctc.0c01306
   
   for ONIOM refer to:
   * C. Plett, A. Katbashev, S. Ehlert, S. Grimme, M. Bursch,
     Phys. Chem. Chem. Phys., 2023, 25, 17860-17868. DOI: 10.1039/D3CP02178E
   
   for DIPRO refer to:
   * J. Kohn, N. Gildemeister, S. Grimme, D. Fazzi, A. Hansen,
     J. Chem. Phys., 2023, just accepted.
   
   for PTB refer to:
   * S. Grimme, M. Mueller, A. Hansen, J. Chem. Phys., 2023, 158, 124111.
     DOI: 10.1063/5.0137838
   
   with help from (in alphabetical order)
   P. Atkinson, C. Bannwarth, F. Bohle, G. Brandenburg, E. Caldeweyher
   M. Checinski, S. Dohm, S. Ehlert, S. Ehrlich, I. Gerasimov, C. Hölzer
   A. Katbashev, J. Kohn, J. Koopman, C. Lavigne, S. Lehtola, F. März, M. Müller,
   F. Musil, H. Neugebauer, J. Pisarek, C. Plett, P. Pracht, F. Pultar,
   J. Seibert, P. Shushkov, S. Spicher, M. Stahn, M. Steiner, T. Strunk,
   J. Stückrath, T. Rose, and J. Unsleber
   
 * started run on 2025/07/14 at 11:26:12.250     
   ID    Z sym.   atoms
    1   15 P      1
    2    6 C      2, 5, 9-14, 20, 23
    3    1 H      3, 4, 6-8, 15-19, 21, 22, 24-26

           -------------------------------------------------
          |                Calculation Setup                |
           -------------------------------------------------

          program call               : /home/minenky/programs/xtb/xtb-dist/bin/xtb m1_00_PEt2Ph-PBE0-D3-TZ-uniMM_10.xyz --charge 0 --T --ohess extreme --cycles 5000 --acc 0.01 --iterations 5000
          coordinate file            : m1_00_PEt2Ph-PBE0-D3-TZ-uniMM_10.xyz
          omp threads                :                    12

########################################################################
[WARNING] Please study the warnings concerning your input carefully
-1- prog_main_parseArguments: Unknown option '--T' provided
########################################################################

           -------------------------------------------------
          |                 G F N 2 - x T B                 |
           -------------------------------------------------

        Reference                      10.1021/acs.jctc.8b01176
      * Hamiltonian:
        H0-scaling (s, p, d)           1.850000    2.230000    2.230000
        zeta-weighting                 0.500000
      * Dispersion:
        s8                             2.700000
        a1                             0.520000
        a2                             5.000000
        s9                             5.000000
      * Repulsion:
        kExp                           1.500000    1.000000
        rExp                           1.000000
      * Coulomb:
        alpha                          2.000000
        third order                    shell-resolved
        anisotropic                    true
        a3                             3.000000
        a5                             4.000000
        cn-shift                       1.200000
        cn-exp                         4.000000
        max-rad                        5.000000


          ...................................................
          :                      SETUP                      :
          :.................................................:
          :  # basis functions                  65          :
          :  # atomic orbitals                  64          :
          :  # shells                           38          :
          :  # electrons                        60          :
          :  max. iterations                  5000          :
          :  Hamiltonian                  GFN2-xTB          :
          :  restarted?                      false          :
          :  GBSA solvation                  false          :
          :  PC potential                    false          :
          :  electronic temp.          300.0000000     K    :
          :  accuracy                    0.0100000          :
          :  -> integral cutoff          0.4500000E+02      :
          :  -> integral neglect         0.1000000E-09      :
          :  -> SCF convergence          0.1000000E-07 Eh   :
          :  -> wf. convergence          0.1000000E-05 e    :
          :  Broyden damping             0.4000000          :
          :  net charge                          0          :
          :  unpaired electrons                  0          :
          ...................................................

 iter      E             dE          RMSdq      gap      omega  full diag
   1    -32.0156152 -0.320156E+02  0.383E+00    4.06       0.0  T
   2    -32.0606163 -0.450012E-01  0.236E+00    3.63       1.0  T
   3    -32.0601228  0.493538E-03  0.900E-01    3.38       1.0  T
   4    -32.0616983 -0.157551E-02  0.275E-01    3.41       1.0  T
   5    -32.0627369 -0.103863E-02  0.138E-01    3.45       1.0  T
   6    -32.0630004 -0.263443E-03  0.432E-02    3.44       1.0  T
   7    -32.0630122 -0.117729E-04  0.162E-02    3.44       1.2  T
   8    -32.0630131 -0.939015E-06  0.729E-03    3.44       2.7  T
   9    -32.0630136 -0.456509E-06  0.170E-03    3.44      11.5  T
  10    -32.0630136 -0.403673E-07  0.587E-04    3.44      33.4  T
  11    -32.0630136 -0.614520E-09  0.319E-04    3.44      61.4  T
  12    -32.0630136 -0.528786E-09  0.513E-05    3.44     382.6  T
  13    -32.0630136 -0.447642E-11  0.211E-05    3.44     929.1  T
  14    -32.0630136 -0.287059E-11  0.100E-05    3.44    1959.1  T
  15    -32.0630136 -0.909495E-12  0.343E-06    3.44    5721.5  T
  16    -32.0630136 -0.120792E-12  0.980E-07    3.44   20005.8  T

   *** convergence criteria satisfied after 16 iterations ***

         #    Occupation            Energy/Eh            Energy/eV
      -------------------------------------------------------------
         1        2.0000           -0.6594481             -17.9445
       ...           ...                  ...                  ...
        24        2.0000           -0.4374876             -11.9046
        25        2.0000           -0.4227817             -11.5045
        26        2.0000           -0.4195042             -11.4153
        27        2.0000           -0.4067904             -11.0693
        28        2.0000           -0.4026374             -10.9563
        29        2.0000           -0.3978980             -10.8274
        30        2.0000           -0.3586907              -9.7605 (HOMO)
        31                         -0.2321474              -6.3171 (LUMO)
        32                         -0.2228387              -6.0637
        33                         -0.1555121              -4.2317
        34                         -0.1409533              -3.8355
        35                         -0.0922259              -2.5096
       ...                                ...                  ...
        64                          0.7882193              21.4485
      -------------------------------------------------------------
                  HL-Gap            0.1265433 Eh            3.4434 eV
             Fermi-level           -0.2954190 Eh           -8.0388 eV

 SCC (total)                   0 d,  0 h,  0 min,  0.091 sec
 SCC setup                      ...        0 min,  0.000 sec (  0.155%)
 Dispersion                     ...        0 min,  0.000 sec (  0.304%)
 classical contributions        ...        0 min,  0.000 sec (  0.011%)
 integral evaluation            ...        0 min,  0.002 sec (  2.039%)
 iterations                     ...        0 min,  0.087 sec ( 95.373%)
 molecular gradient             ...        0 min,  0.002 sec (  2.013%)
 printout                       ...        0 min,  0.000 sec (  0.087%)

         :::::::::::::::::::::::::::::::::::::::::::::::::::::
         ::                     SUMMARY                     ::
         :::::::::::::::::::::::::::::::::::::::::::::::::::::
         :: total energy             -31.548203855506 Eh    ::
         :: gradient norm              0.028229565091 Eh/a0 ::
         :: HOMO-LUMO gap              3.443418436722 eV    ::
         ::.................................................::
         :: SCC energy               -32.062793520909 Eh    ::
         :: -> isotropic ES            0.004047375235 Eh    ::
         :: -> anisotropic ES          0.006179727570 Eh    ::
         :: -> anisotropic XC          0.021881288258 Eh    ::
         :: -> dispersion             -0.023738947630 Eh    ::
         :: repulsion energy           0.514589665403 Eh    ::
         :: add. restraining           0.000000000000 Eh    ::
         :: total charge               0.000000000000 e     ::
         :::::::::::::::::::::::::::::::::::::::::::::::::::::

      ----------------------------------------------------------- 
     |                   =====================                   |
     |                        A N C O P T                        |
     |                   =====================                   |
     |               Approximate Normal Coordinate               |
     |                Rational Function Optimizer                |
      ----------------------------------------------------------- 
      ----------------------------------------------------------- 
     |                   =====================                   |
     |                        A N C O P T                        |
     |                   =====================                   |
     |               Approximate Normal Coordinate               |
     |                Rational Function Optimizer                |
      ----------------------------------------------------------- 

          ...................................................
          :                      SETUP                      :
          :.................................................:
          :   optimization level           extreme          :
          :   max. optcycles                  5000          :
          :   ANC micro-cycles                  20          :
          :   degrees of freedom                72          :
          :.................................................:
          :   RF solver                   davidson          :
          :   write xtbopt.log                true          :
          :   linear?                        false          :
          :   energy convergence         0.5000000E-07 Eh   :
          :   grad. convergence          0.5000000E-04 Eh/α :
          :   maxmium RF displ.          1.0000000          :
          :   Hlow (freq-cutoff)         0.1000000E-01      :
          :   Hmax (freq-cutoff)         5.0000000          :
          :   S6 in model hess.         20.0000000          :
          ...................................................

generating ANC from model Hessian ...
Using Lindh-Hessian (1995)
 Shifting diagonal of input Hessian by   9.216539094549765E-003
 Lowest  eigenvalues of input Hessian
    0.000000    0.000000    0.000000    0.000000    0.000000    0.000000
    0.010000    0.010069    0.010801    0.011675    0.011946    0.012560
    0.015278    0.017777    0.018825    0.019696    0.023846    0.024315
 Highest eigenvalues
    1.346914    1.534930    1.561787    1.863988    1.965727    1.985672
 

........................................................................
.............................. CYCLE    1 ..............................
........................................................................

 iter      E             dE          RMSdq      gap      omega  full diag
   1    -32.0630136 -0.320630E+02  0.419E-07    3.44       0.0  T
   2    -32.0630136  0.213163E-13  0.258E-07    3.44   75956.2  T
   3    -32.0630136  0.355271E-13  0.121E-07    3.44  100000.0  T
     SCC iter.                  ...        0 min,  0.071 sec
     gradient                   ...        0 min,  0.002 sec
 * total energy  :   -31.5482039 Eh     change        0.6394885E-13 Eh
   gradient norm :     0.0282296 Eh/α   predicted     0.0000000E+00 (-100.00%)
   displ. norm   :     0.1914738 α      lambda       -0.2533278E-02
   maximum displ.:     0.0725646 α      in ANC's #4, #5, #20, ...

........................................................................
.............................. CYCLE    2 ..............................
........................................................................

 iter      E             dE          RMSdq      gap      omega  full diag
   1    -32.0682016 -0.320682E+02  0.184E-01    3.56       0.0  T
   2    -32.0682533 -0.517813E-04  0.926E-02    3.57       1.0  T
   3    -32.0682581 -0.471284E-05  0.322E-02    3.59       1.0  T
   4    -32.0682585 -0.401330E-06  0.136E-02    3.58       1.4  T
   5    -32.0682591 -0.688903E-06  0.484E-03    3.59       4.1  T
   6    -32.0682594 -0.295767E-06  0.272E-03    3.59       7.2  T
   7    -32.0682595 -0.246558E-07  0.747E-04    3.59      26.3  T
   8    -32.0682595 -0.110009E-08  0.331E-04    3.59      59.2  T
   9    -32.0682595 -0.802352E-09  0.772E-05    3.59     254.1  T
  10    -32.0682595 -0.700311E-10  0.308E-05    3.59     636.8  T
  11    -32.0682595 -0.400036E-11  0.119E-05    3.59    1646.4  T
  12    -32.0682595 -0.348166E-12  0.373E-06    3.59    5255.6  T
  13    -32.0682595 -0.568434E-13  0.158E-06    3.59   12420.8  T
     SCC iter.                  ...        0 min,  0.073 sec
     gradient                   ...        0 min,  0.002 sec
 * total energy  :   -31.5497218 Eh     change       -0.1517901E-02 Eh
   gradient norm :     0.0113807 Eh/α   predicted    -0.1313102E-02 ( -13.49%)
   displ. norm   :     0.1625737 α      lambda       -0.5824226E-03
   maximum displ.:     0.0777017 α      in ANC's #4, #5, #6, ...

........................................................................
.............................. CYCLE    3 ..............................
........................................................................

 iter      E             dE          RMSdq      gap      omega  full diag
   1    -32.0707084 -0.320707E+02  0.829E-02    3.59       0.0  T
   2    -32.0707106 -0.224925E-05  0.501E-02    3.58       1.0  T
   3    -32.0707105  0.174985E-06  0.760E-03    3.58       2.6  T
   4    -32.0707109 -0.442735E-06  0.267E-03    3.58       7.3  T
   5    -32.0707109 -0.192561E-07  0.142E-03    3.58      13.8  T
   6    -32.0707109 -0.102277E-07  0.686E-04    3.58      28.6  T
   7    -32.0707109 -0.155539E-08  0.123E-04    3.58     159.9  T
   8    -32.0707109 -0.278824E-09  0.500E-05    3.58     392.0  T
   9    -32.0707109 -0.187299E-10  0.197E-05    3.58     993.7  T
  10    -32.0707109 -0.173372E-11  0.818E-06    3.58    2398.8  T
  11    -32.0707109 -0.319744E-12  0.328E-06    3.58    5979.3  T
     SCC iter.                  ...        0 min,  0.074 sec
     gradient                   ...        0 min,  0.002 sec
 * total energy  :   -31.5500738 Eh     change       -0.3520145E-03 Eh
   gradient norm :     0.0035716 Eh/α   predicted    -0.2998776E-03 ( -14.81%)
   displ. norm   :     0.1246536 α      lambda       -0.1527229E-03
   maximum displ.:     0.0563805 α      in ANC's #3, #1, #4, ...

........................................................................
.............................. CYCLE    4 ..............................
........................................................................

 iter      E             dE          RMSdq      gap      omega  full diag
   1    -32.0705295 -0.320705E+02  0.311E-02    3.59       0.0  T
   2    -32.0705303 -0.860696E-06  0.192E-02    3.59       1.0  T
   3    -32.0705303  0.353578E-07  0.514E-03    3.59       3.8  T
   4    -32.0705304 -0.120981E-06  0.241E-03    3.59       8.1  T
   5    -32.0705304 -0.171272E-07  0.648E-04    3.59      30.3  T
   6    -32.0705304 -0.916378E-08  0.287E-04    3.59      68.3  T
   7    -32.0705304 -0.435847E-09  0.120E-04    3.59     163.4  T
   8    -32.0705304 -0.184599E-10  0.476E-05    3.59     411.8  T
   9    -32.0705304 -0.120721E-10  0.102E-05    3.59    1926.7  T
  10    -32.0705304 -0.131450E-11  0.427E-06    3.59    4590.7  T
  11    -32.0705304 -0.106581E-12  0.193E-06    3.59   10150.6  T
     SCC iter.                  ...        0 min,  0.073 sec
     gradient                   ...        0 min,  0.002 sec
 * total energy  :   -31.5501820 Eh     change       -0.1081982E-03 Eh
   gradient norm :     0.0025266 Eh/α   predicted    -0.7755499E-04 ( -28.32%)
   displ. norm   :     0.1478934 α      lambda       -0.1055006E-03
   maximum displ.:     0.0790836 α      in ANC's #3, #1, #4, ...

........................................................................
.............................. CYCLE    5 ..............................
........................................................................

 iter      E             dE          RMSdq      gap      omega  full diag
   1    -32.0699565 -0.320700E+02  0.318E-02    3.59       0.0  T
   2    -32.0699567 -0.234909E-06  0.188E-02    3.59       1.0  T
   3    -32.0699565  0.231333E-06  0.366E-03    3.59       5.4  T
   4    -32.0699568 -0.251139E-06  0.161E-03    3.59      12.1  T
   5    -32.0699568 -0.367611E-07  0.338E-04    3.59      58.1  T
   6    -32.0699568 -0.547544E-10  0.164E-04    3.59     119.6  T
   7    -32.0699568 -0.117460E-09  0.630E-05    3.59     311.1  T
   8    -32.0699568 -0.174794E-10  0.172E-05    3.59    1143.3  T
   9    -32.0699568 -0.238742E-11  0.756E-06    3.59    2595.1  T
  10    -32.0699568 -0.412115E-12  0.224E-06    3.59    8762.2  T
     SCC iter.                  ...        0 min,  0.072 sec
     gradient                   ...        0 min,  0.002 sec
 * total energy  :   -31.5502605 Eh     change       -0.7855722E-04 Eh
   gradient norm :     0.0032561 Eh/α   predicted    -0.5390570E-04 ( -31.38%)
   displ. norm   :     0.1571199 α      lambda       -0.8707130E-04
   maximum displ.:     0.0933520 α      in ANC's #3, #1, #4, ...

........................................................................
.............................. CYCLE    6 ..............................
........................................................................

 iter      E             dE          RMSdq      gap      omega  full diag
   1    -32.0695645 -0.320696E+02  0.316E-02    3.59       0.0  T
   2    -32.0695648 -0.310132E-06  0.183E-02    3.59       1.1  T
   3    -32.0695645  0.297638E-06  0.477E-03    3.59       4.1  T
   4    -32.0695649 -0.349750E-06  0.151E-03    3.59      13.0  T
   5    -32.0695649 -0.288090E-07  0.411E-04    3.59      47.8  T
   6    -32.0695649 -0.824478E-09  0.185E-04    3.59     105.8  T
   7    -32.0695649 -0.552376E-10  0.614E-05    3.59     319.4  T
   8    -32.0695649 -0.171170E-10  0.190E-05    3.59    1034.5  T
   9    -32.0695649 -0.152056E-11  0.911E-06    3.59    2152.2  T
  10    -32.0695649 -0.625278E-12  0.331E-06    3.59    5920.5  T
     SCC iter.                  ...        0 min,  0.072 sec
     gradient                   ...        0 min,  0.002 sec
 * total energy  :   -31.5503317 Eh     change       -0.7120664E-04 Eh
   gradient norm :     0.0029306 Eh/α   predicted    -0.4461072E-04 ( -37.35%)
   displ. norm   :     0.1948324 α      lambda       -0.1050542E-03
   maximum displ.:     0.1225053 α      in ANC's #1, #3, #6, ...

........................................................................
.............................. CYCLE    7 ..............................
........................................................................

 iter      E             dE          RMSdq      gap      omega  full diag
   1    -32.0694281 -0.320694E+02  0.399E-02    3.59       0.0  T
   2    -32.0694287 -0.616028E-06  0.229E-02    3.59       1.0  T
   3    -32.0694284  0.374999E-06  0.659E-03    3.59       3.0  T
   4    -32.0694288 -0.472901E-06  0.183E-03    3.59      10.7  T
   5    -32.0694289 -0.340879E-07  0.745E-04    3.59      26.3  T
   6    -32.0694289 -0.612814E-08  0.235E-04    3.59      83.3  T
   7    -32.0694289 -0.346745E-11  0.857E-05    3.59     228.8  T
   8    -32.0694289 -0.579021E-10  0.259E-05    3.59     757.5  T
   9    -32.0694289 -0.310507E-11  0.127E-05    3.59    1547.8  T
  10    -32.0694289 -0.219558E-11  0.524E-06    3.59    3744.7  T
  11    -32.0694289 -0.994760E-13  0.156E-06    3.59   12562.1  T
     SCC iter.                  ...        0 min,  0.073 sec
     gradient                   ...        0 min,  0.002 sec
 * total energy  :   -31.5504230 Eh     change       -0.9128170E-04 Eh
   gradient norm :     0.0027717 Eh/α   predicted    -0.5452157E-04 ( -40.27%)
   displ. norm   :     0.2888161 α      lambda       -0.1620115E-03
   maximum displ.:     0.1861850 α      in ANC's #1, #3, #5, ...

........................................................................
.............................. CYCLE    8 ..............................
........................................................................

 iter      E             dE          RMSdq      gap      omega  full diag
   1    -32.0692013 -0.320692E+02  0.604E-02    3.59       0.0  T
   2    -32.0692027 -0.131803E-05  0.342E-02    3.60       1.0  T
   3    -32.0692021  0.587178E-06  0.968E-03    3.59       2.0  T
   4    -32.0692029 -0.792449E-06  0.249E-03    3.60       7.9  T
   5    -32.0692029 -0.307354E-07  0.134E-03    3.60      14.6  T
   6    -32.0692029 -0.257062E-07  0.376E-04    3.60      52.2  T
   7    -32.0692029  0.602824E-10  0.127E-04    3.60     153.9  T
   8    -32.0692029 -0.191228E-09  0.359E-05    3.60     546.1  T
   9    -32.0692029 -0.584066E-11  0.186E-05    3.60    1053.1  T
  10    -32.0692029 -0.553513E-11  0.766E-06    3.60    2561.2  T
  11    -32.0692029 -0.163425E-12  0.221E-06    3.60    8857.2  T
     SCC iter.                  ...        0 min,  0.074 sec
     gradient                   ...        0 min,  0.002 sec
 * total energy  :   -31.5505661 Eh     change       -0.1431173E-03 Eh
   gradient norm :     0.0053790 Eh/α   predicted    -0.8776423E-04 ( -38.68%)
   displ. norm   :     0.4235349 α      lambda       -0.2632996E-03
   maximum displ.:     0.2753404 α      in ANC's #1, #3, #5, ...

........................................................................
.............................. CYCLE    9 ..............................
........................................................................

 iter      E             dE          RMSdq      gap      omega  full diag
   1    -32.0683692 -0.320684E+02  0.906E-02    3.60       0.0  T
   2    -32.0683720 -0.278659E-05  0.509E-02    3.60       1.0  T
   3    -32.0683710  0.952542E-06  0.148E-02    3.60       1.3  T
   4    -32.0683724 -0.141119E-05  0.342E-03    3.60       5.7  T
   5    -32.0683725 -0.377564E-08  0.205E-03    3.60       9.6  T
   6    -32.0683725 -0.642259E-07  0.591E-04    3.60      33.2  T
   7    -32.0683725  0.135500E-09  0.182E-04    3.60     107.7  T
   8    -32.0683725 -0.445972E-09  0.502E-05    3.60     390.9  T
   9    -32.0683725 -0.119016E-10  0.265E-05    3.60     739.8  T
  10    -32.0683725 -0.114611E-10  0.109E-05    3.60    1803.1  T
  11    -32.0683725 -0.255795E-12  0.291E-06    3.60    6749.5  T
  12    -32.0683725  0.142109E-13  0.885E-07    3.60   22171.2  T
     SCC iter.                  ...        0 min,  0.073 sec
     gradient                   ...        0 min,  0.002 sec
 * total energy  :   -31.5507723 Eh     change       -0.2061312E-03 Eh
   gradient norm :     0.0112098 Eh/α   predicted    -0.1552723E-03 ( -24.67%)
   displ. norm   :     0.4021396 α      lambda       -0.3348672E-03
   maximum displ.:     0.2676667 α      in ANC's #1, #3, #5, ...

........................................................................
.............................. CYCLE   10 ..............................
........................................................................

 iter      E             dE          RMSdq      gap      omega  full diag
   1    -32.0688531 -0.320689E+02  0.838E-02    3.60       0.0  T
   2    -32.0688552 -0.218311E-05  0.476E-02    3.60       1.0  T
   3    -32.0688545  0.709053E-06  0.120E-02    3.60       1.6  T
   4    -32.0688556 -0.105260E-05  0.287E-03    3.60       6.8  T
   5    -32.0688556 -0.200688E-07  0.166E-03    3.60      11.8  T
   6    -32.0688556 -0.365918E-07  0.546E-04    3.60      35.9  T
   7    -32.0688556  0.675939E-10  0.157E-04    3.60     125.2  T
   8    -32.0688556 -0.151175E-09  0.578E-05    3.60     339.0  T
   9    -32.0688556 -0.315552E-10  0.255E-05    3.60     769.4  T
  10    -32.0688556 -0.994760E-11  0.102E-05    3.60    1932.2  T
  11    -32.0688556 -0.227374E-12  0.273E-06    3.60    7188.6  T
  12    -32.0688556 -0.568434E-13  0.898E-07    3.60   21844.0  T
     SCC iter.                  ...        0 min,  0.073 sec
     gradient                   ...        0 min,  0.002 sec
 * total energy  :   -31.5510272 Eh     change       -0.2549527E-03 Eh
   gradient norm :     0.0158139 Eh/α   predicted    -0.1945118E-03 ( -23.71%)
   displ. norm   :     0.3685145 α      lambda       -0.5969892E-03
   maximum displ.:     0.2414285 α      in ANC's #1, #3, #5, ...

........................................................................
.............................. CYCLE   11 ..............................
........................................................................

 iter      E             dE          RMSdq      gap      omega  full diag
   1    -32.0728017 -0.320728E+02  0.789E-02    3.61       0.0  T
   2    -32.0728047 -0.305816E-05  0.457E-02    3.61       1.0  T
   3    -32.0728048 -0.361453E-07  0.876E-03    3.61       2.2  T
   4    -32.0728049 -0.175842E-06  0.314E-03    3.61       6.3  T
   5    -32.0728049 -0.201837E-08  0.182E-03    3.61      10.8  T
   6    -32.0728050 -0.345938E-07  0.522E-04    3.61      37.6  T
   7    -32.0728050 -0.208702E-08  0.213E-04    3.61      92.0  T
   8    -32.0728050 -0.161819E-09  0.611E-05    3.61     320.9  T
   9    -32.0728050 -0.178275E-10  0.265E-05    3.61     739.8  T
  10    -32.0728050 -0.436273E-11  0.854E-06    3.61    2295.9  T
  11    -32.0728050 -0.497380E-12  0.328E-06    3.61    5975.4  T
     SCC iter.                  ...        0 min,  0.073 sec
     gradient                   ...        0 min,  0.002 sec
 * total energy  :   -31.5514809 Eh     change       -0.4536973E-03 Eh
   gradient norm :     0.0155301 Eh/α   predicted    -0.3390360E-03 ( -25.27%)
   displ. norm   :     0.6489141 α      lambda       -0.9268419E-03
   maximum displ.:     0.4348835 α      in ANC's #1, #3, #5, ...

........................................................................
.............................. CYCLE   12 ..............................
........................................................................

 iter      E             dE          RMSdq      gap      omega  full diag
   1    -32.0695338 -0.320695E+02  0.146E-01    3.62       0.0  T
   2    -32.0695397 -0.593198E-05  0.879E-02    3.62       1.0  T
   3    -32.0695393  0.426175E-06  0.146E-02    3.62       1.3  T
   4    -32.0695405 -0.122783E-05  0.361E-03    3.62       5.4  T
   5    -32.0695405 -0.298728E-07  0.163E-03    3.62      12.0  T
   6    -32.0695405 -0.150306E-07  0.787E-04    3.62      24.9  T
   7    -32.0695405 -0.357961E-08  0.310E-04    3.62      63.3  T
   8    -32.0695405 -0.322402E-09  0.866E-05    3.62     226.6  T
   9    -32.0695405 -0.166409E-10  0.456E-05    3.62     430.5  T
  10    -32.0695405 -0.623146E-11  0.141E-05    3.62    1395.3  T
  11    -32.0695405 -0.952127E-12  0.638E-06    3.62    3073.9  T
  12    -32.0695405 -0.191847E-12  0.175E-06    3.62   11187.5  T
     SCC iter.                  ...        0 min,  0.073 sec
     gradient                   ...        0 min,  0.002 sec
 * total energy  :   -31.5521104 Eh     change       -0.6294713E-03 Eh
   gradient norm :     0.0159625 Eh/α   predicted    -0.6585704E-03 (   4.62%)
   displ. norm   :     0.3092199 α      lambda       -0.1499373E-02
   maximum displ.:     0.1439545 α      in ANC's #1, #7, #8, ...

........................................................................
.............................. CYCLE   13 ..............................
........................................................................

 iter      E             dE          RMSdq      gap      omega  full diag
   1    -32.0763045 -0.320763E+02  0.151E-01    3.63       0.0  T
   2    -32.0763305 -0.259873E-04  0.781E-02    3.62       1.0  T
   3    -32.0763309 -0.451271E-06  0.418E-02    3.63       1.0  T
   4    -32.0763342 -0.327239E-05  0.714E-03    3.63       2.7  T
   5    -32.0763343 -0.101428E-06  0.446E-03    3.63       4.4  T
   6    -32.0763344 -0.114990E-06  0.165E-03    3.63      11.9  T
   7    -32.0763344 -0.618489E-08  0.518E-04    3.63      37.9  T
   8    -32.0763344 -0.122033E-08  0.172E-04    3.63     113.9  T
   9    -32.0763344 -0.144105E-09  0.719E-05    3.63     272.7  T
  10    -32.0763344 -0.464482E-10  0.269E-05    3.63     729.9  T
  11    -32.0763344 -0.326139E-11  0.100E-05    3.63    1957.2  T
  12    -32.0763344 -0.603961E-12  0.235E-06    3.63    8332.1  T
  13    -32.0763344 -0.639488E-13  0.646E-07    3.63   30363.9  T
     SCC iter.                  ...        0 min,  0.074 sec
     gradient                   ...        0 min,  0.002 sec
 * total energy  :   -31.5521875 Eh     change       -0.7714800E-04 Eh
   gradient norm :     0.0200654 Eh/α   predicted    -0.8213812E-03 ( 964.68%)
   displ. norm   :     0.3974172 α      lambda       -0.1468869E-02
   maximum displ.:     0.2706847 α      in ANC's #1, #3, #5, ...

........................................................................
.............................. CYCLE   14 ..............................
........................................................................

 iter      E             dE          RMSdq      gap      omega  full diag
   1    -32.0696982 -0.320697E+02  0.140E-01    3.62       0.0  T
   2    -32.0697114 -0.132233E-04  0.714E-02    3.63       1.0  T
   3    -32.0697105  0.952697E-06  0.384E-02    3.63       1.0  T
   4    -32.0697141 -0.359830E-05  0.698E-03    3.63       2.8  T
   5    -32.0697141  0.217341E-07  0.356E-03    3.63       5.5  T
   6    -32.0697142 -0.937276E-07  0.157E-03    3.63      12.5  T
   7    -32.0697142 -0.438556E-08  0.454E-04    3.63      43.2  T
   8    -32.0697142 -0.214951E-08  0.126E-04    3.63     156.1  T
   9    -32.0697142 -0.251035E-10  0.419E-05    3.63     468.1  T
  10    -32.0697142 -0.161577E-10  0.160E-05    3.63    1228.6  T
  11    -32.0697142 -0.373035E-11  0.594E-06    3.63    3303.3  T
  12    -32.0697142 -0.156319E-12  0.202E-06    3.63    9694.0  T
     SCC iter.                  ...        0 min,  0.073 sec
     gradient                   ...        0 min,  0.002 sec
 * total energy  :   -31.5529439 Eh     change       -0.7563622E-03 Eh
   gradient norm :     0.0116283 Eh/α   predicted    -0.8504368E-03 (  12.44%)
   displ. norm   :     0.1700100 α      lambda       -0.3479567E-03
   maximum displ.:     0.1252418 α      in ANC's #1, #3, #47, ...

........................................................................
.............................. CYCLE   15 ..............................
........................................................................

 iter      E             dE          RMSdq      gap      omega  full diag
   1    -32.0701205 -0.320701E+02  0.466E-02    3.63       0.0  T
   2    -32.0701209 -0.429180E-06  0.269E-02    3.63       1.0  T
   3    -32.0701204  0.461858E-06  0.625E-03    3.62       3.1  T
   4    -32.0701210 -0.591955E-06  0.162E-03    3.63      12.1  T
   5    -32.0701211 -0.168594E-07  0.913E-04    3.63      21.5  T
   6    -32.0701211 -0.595762E-08  0.334E-04    3.63      58.7  T
   7    -32.0701211 -0.304389E-09  0.106E-04    3.63     184.2  T
   8    -32.0701211 -0.375806E-10  0.608E-05    3.63     322.4  T
   9    -32.0701211 -0.883915E-11  0.185E-05    3.63    1062.9  T
  10    -32.0701211 -0.132161E-11  0.487E-06    3.63    4023.7  T
  11    -32.0701211 -0.426326E-12  0.139E-06    3.63   14127.6  T
     SCC iter.                  ...        0 min,  0.073 sec
     gradient                   ...        0 min,  0.002 sec
 * total energy  :   -31.5532067 Eh     change       -0.2628530E-03 Eh
   gradient norm :     0.0086196 Eh/α   predicted    -0.1790089E-03 ( -31.90%)
   displ. norm   :     0.3136543 α      lambda       -0.7267528E-03
   maximum displ.:     0.2127122 α      in ANC's #1, #3, #8, ...

........................................................................
.............................. CYCLE   16 ..............................
........................................................................

 iter      E             dE          RMSdq      gap      omega  full diag
   1    -32.0744045 -0.320744E+02  0.708E-02    3.62       0.0  T
   2    -32.0744087 -0.421888E-05  0.420E-02    3.62       1.0  T
   3    -32.0744064  0.232720E-05  0.149E-02    3.62       1.3  T
   4    -32.0744093 -0.285630E-05  0.539E-03    3.62       3.6  T
   5    -32.0744097 -0.449441E-06  0.229E-03    3.62       8.6  T
   6    -32.0744097 -0.186716E-07  0.645E-04    3.62      30.4  T
   7    -32.0744097 -0.623331E-09  0.287E-04    3.62      68.2  T
   8    -32.0744097 -0.146322E-09  0.103E-04    3.62     190.8  T
   9    -32.0744097 -0.879368E-10  0.380E-05    3.62     516.2  T
  10    -32.0744097 -0.395062E-11  0.966E-06    3.62    2029.9  T
  11    -32.0744097 -0.191847E-12  0.436E-06    3.62    4493.1  T
     SCC iter.                  ...        0 min,  0.073 sec
     gradient                   ...        0 min,  0.002 sec
 * total energy  :   -31.5536762 Eh     change       -0.4694731E-03 Eh
   gradient norm :     0.0068822 Eh/α   predicted    -0.3991294E-03 ( -14.98%)
   displ. norm   :     0.7082247 α      lambda       -0.7516598E-03
   maximum displ.:     0.5082570 α      in ANC's #1, #3, #5, ...

........................................................................
.............................. CYCLE   17 ..............................
........................................................................

 iter      E             dE          RMSdq      gap      omega  full diag
   1    -32.0685642 -0.320686E+02  0.159E-01    3.63       0.0  T
   2    -32.0685732 -0.909174E-05  0.917E-02    3.63       1.0  T
   3    -32.0685703  0.293457E-05  0.301E-02    3.62       1.0  T
   4    -32.0685750 -0.469109E-05  0.657E-03    3.62       3.0  T
   5    -32.0685751 -0.111383E-06  0.316E-03    3.62       6.2  T
   6    -32.0685752 -0.777122E-07  0.134E-03    3.62      14.7  T
   7    -32.0685752 -0.100202E-07  0.276E-04    3.62      71.1  T
   8    -32.0685752 -0.157840E-09  0.108E-04    3.62     180.8  T
   9    -32.0685752 -0.493330E-10  0.488E-05    3.62     401.7  T
  10    -32.0685752 -0.118590E-10  0.186E-05    3.62    1052.2  T
  11    -32.0685752 -0.197531E-11  0.552E-06    3.62    3553.3  T
  12    -32.0685752 -0.127898E-12  0.203E-06    3.62    9671.9  T
     SCC iter.                  ...        0 min,  0.074 sec
     gradient                   ...        0 min,  0.002 sec
 * total energy  :   -31.5539505 Eh     change       -0.2742382E-03 Eh
   gradient norm :     0.0164877 Eh/α   predicted    -0.5643464E-03 ( 105.79%)
   displ. norm   :     0.1292772 α      lambda       -0.7748963E-03
   maximum displ.:     0.0664281 α      in ANC's #4, #5, #3, ...

........................................................................
.............................. CYCLE   18 ..............................
........................................................................

 iter      E             dE          RMSdq      gap      omega  full diag
   1    -32.0741362 -0.320741E+02  0.696E-02    3.64       0.0  T
   2    -32.0741405 -0.431526E-05  0.345E-02    3.63       1.0  T
   3    -32.0741406 -0.744622E-07  0.193E-02    3.64       1.0  T
   4    -32.0741412 -0.660071E-06  0.387E-03    3.64       5.1  T
   5    -32.0741412  0.626295E-08  0.193E-03    3.64      10.2  T
   6    -32.0741412 -0.217433E-07  0.886E-04    3.64      22.1  T
   7    -32.0741412 -0.121328E-08  0.291E-04    3.64      67.3  T
   8    -32.0741412 -0.803595E-09  0.875E-05    3.64     224.2  T
   9    -32.0741412 -0.189004E-10  0.363E-05    3.64     539.7  T
  10    -32.0741412 -0.440536E-11  0.126E-05    3.64    1556.1  T
  11    -32.0741412 -0.231637E-11  0.435E-06    3.64    4512.0  T
  12    -32.0741412 -0.149214E-12  0.132E-06    3.64   14885.6  T
     SCC iter.                  ...        0 min,  0.074 sec
     gradient                   ...        0 min,  0.002 sec
 * total energy  :   -31.5543824 Eh     change       -0.4319485E-03 Eh
   gradient norm :     0.0064752 Eh/α   predicted    -0.3939277E-03 (  -8.80%)
   displ. norm   :     0.3492565 α      lambda       -0.3040581E-03
   maximum displ.:     0.2448148 α      in ANC's #1, #3, #47, ...

........................................................................
.............................. CYCLE   19 ..............................
........................................................................

 iter      E             dE          RMSdq      gap      omega  full diag
   1    -32.0738262 -0.320738E+02  0.779E-02    3.64       0.0  T
   2    -32.0738268 -0.593785E-06  0.459E-02    3.64       1.0  T
   3    -32.0738262  0.569113E-06  0.699E-03    3.64       2.8  T
   4    -32.0738270 -0.755388E-06  0.204E-03    3.64       9.6  T
   5    -32.0738270 -0.308978E-07  0.956E-04    3.64      20.5  T
   6    -32.0738270 -0.215777E-08  0.335E-04    3.64      58.5  T
   7    -32.0738270 -0.446590E-09  0.960E-05    3.64     204.4  T
   8    -32.0738270 -0.265601E-10  0.353E-05    3.64     555.8  T
   9    -32.0738270 -0.163070E-10  0.987E-06    3.64    1986.7  T
  10    -32.0738270 -0.504485E-12  0.443E-06    3.64    4423.7  T
     SCC iter.                  ...        0 min,  0.073 sec
     gradient                   ...        0 min,  0.002 sec
 * total energy  :   -31.5546051 Eh     change       -0.2227068E-03 Eh
   gradient norm :     0.0050939 Eh/α   predicted    -0.1705737E-03 ( -23.41%)
   displ. norm   :     0.4259673 α      lambda       -0.2562956E-03
   maximum displ.:     0.3020842 α      in ANC's #1, #2, #3, ...

........................................................................
.............................. CYCLE   20 ..............................
........................................................................

 iter      E             dE          RMSdq      gap      omega  full diag
   1    -32.0723492 -0.320723E+02  0.102E-01    3.64       0.0  T
   2    -32.0723501 -0.864833E-06  0.604E-02    3.64       1.0  T
   3    -32.0723489  0.121863E-05  0.845E-03    3.64       2.3  T
   4    -32.0723504 -0.156499E-05  0.272E-03    3.64       7.2  T
   5    -32.0723505 -0.396999E-07  0.116E-03    3.64      16.9  T
   6    -32.0723505 -0.175381E-08  0.277E-04    3.64      70.7  T
   7    -32.0723505 -0.337138E-09  0.139E-04    3.64     141.2  T
   8    -32.0723505 -0.642046E-10  0.494E-05    3.64     396.6  T
   9    -32.0723505 -0.119016E-10  0.141E-05    3.64    1390.1  T
  10    -32.0723505 -0.216716E-11  0.676E-06    3.64    2900.9  T
  11    -32.0723505 -0.355271E-12  0.216E-06    3.64    9062.8  T
     SCC iter.                  ...        0 min,  0.074 sec
     gradient                   ...        0 min,  0.002 sec
 * total energy  :   -31.5547508 Eh     change       -0.1457117E-03 Eh
   gradient norm :     0.0069090 Eh/α   predicted    -0.1513992E-03 (   3.90%)
   displ. norm   :     0.1763836 α      lambda       -0.2081683E-03
   maximum displ.:     0.1018091 α      in ANC's #2, #1, #47, ...
 * RMSD in coord.:     1.0080672 α      energy gain  -0.6546971E-02 Eh

generating ANC from model Hessian ...
Using Lindh-Hessian (1995)
 Shifting diagonal of input Hessian by   9.220909017751898E-003
 Lowest  eigenvalues of input Hessian
    0.000000    0.000000    0.000000    0.000000    0.000000    0.000000
    0.010000    0.010313    0.010616    0.011267    0.012262    0.012452
    0.015201    0.017247    0.018550    0.019318    0.023991    0.024305
 Highest eigenvalues
    1.361037    1.548101    1.575537    1.880574    1.985014    2.002317
 

........................................................................
.............................. CYCLE   21 ..............................
........................................................................

 iter      E             dE          RMSdq      gap      omega  full diag
   1    -32.0749946 -0.320750E+02  0.631E-02    3.63       0.0  T
   2    -32.0749958 -0.119242E-05  0.356E-02    3.63       1.0  T
   3    -32.0749957  0.142088E-06  0.101E-02    3.63       1.9  T
   4    -32.0749960 -0.320245E-06  0.274E-03    3.63       7.2  T
   5    -32.0749959  0.231540E-07  0.182E-03    3.63      10.8  T
   6    -32.0749960 -0.357313E-07  0.631E-04    3.63      31.1  T
   7    -32.0749960 -0.111517E-08  0.236E-04    3.63      83.0  T
   8    -32.0749960 -0.360743E-10  0.342E-05    3.63     573.0  T
   9    -32.0749960 -0.113545E-10  0.182E-05    3.63    1075.6  T
  10    -32.0749960 -0.262190E-11  0.539E-06    3.63    3639.9  T
  11    -32.0749960 -0.994760E-13  0.152E-06    3.63   12890.4  T
     SCC iter.                  ...        0 min,  0.075 sec
     gradient                   ...        0 min,  0.002 sec
 * total energy  :   -31.5548694 Eh     change       -0.1186236E-03 Eh
   gradient norm :     0.0040733 Eh/α   predicted     0.0000000E+00 (-100.00%)
   displ. norm   :     0.0687285 α      lambda       -0.1043562E-03
   maximum displ.:     0.0403704 α      in ANC's #5, #1, #16, ...

........................................................................
.............................. CYCLE   22 ..............................
........................................................................

 iter      E             dE          RMSdq      gap      omega  full diag
   1    -32.0758011 -0.320758E+02  0.324E-02    3.64       0.0  T
   2    -32.0758015 -0.413986E-06  0.181E-02    3.64       1.1  T
   3    -32.0758016 -0.299772E-07  0.367E-03    3.64       5.3  T
   4    -32.0758016 -0.222523E-07  0.129E-03    3.64      15.2  T
   5    -32.0758016 -0.767471E-08  0.425E-04    3.64      46.2  T
   6    -32.0758016 -0.234240E-08  0.230E-04    3.64      85.4  T
   7    -32.0758016 -0.244242E-09  0.530E-05    3.64     370.4  T
   8    -32.0758016 -0.216716E-11  0.213E-05    3.64     919.6  T
   9    -32.0758016 -0.585487E-11  0.808E-06    3.64    2425.9  T
  10    -32.0758016 -0.625278E-12  0.369E-06    3.64    5317.9  T
     SCC iter.                  ...        0 min,  0.074 sec
     gradient                   ...        0 min,  0.002 sec
 * total energy  :   -31.5549483 Eh     change       -0.7882236E-04 Eh
   gradient norm :     0.0015666 Eh/α   predicted    -0.5260841E-04 ( -33.26%)
   displ. norm   :     0.2261842 α      lambda       -0.1223484E-03
   maximum displ.:     0.1350567 α      in ANC's #5, #1, #3, ...

........................................................................
.............................. CYCLE   23 ..............................
........................................................................

 iter      E             dE          RMSdq      gap      omega  full diag
   1    -32.0763626 -0.320764E+02  0.682E-02    3.64       0.0  T
   2    -32.0763630 -0.351440E-06  0.400E-02    3.63       1.0  T
   3    -32.0763630 -0.825472E-08  0.314E-03    3.64       6.2  T
   4    -32.0763630 -0.799092E-07  0.136E-03    3.63      14.4  T
   5    -32.0763631 -0.143483E-07  0.640E-04    3.63      30.6  T
   6    -32.0763631 -0.450095E-08  0.285E-04    3.63      68.9  T
   7    -32.0763631 -0.179838E-09  0.666E-05    3.63     294.3  T
   8    -32.0763631 -0.367706E-10  0.311E-05    3.63     631.0  T
   9    -32.0763631 -0.118092E-10  0.128E-05    3.63    1529.7  T
  10    -32.0763631 -0.120082E-11  0.406E-06    3.63    4829.3  T
  11    -32.0763631 -0.163425E-12  0.194E-06    3.63   10084.8  T
     SCC iter.                  ...        0 min,  0.075 sec
     gradient                   ...        0 min,  0.002 sec
 * total energy  :   -31.5550548 Eh     change       -0.1065315E-03 Eh
   gradient norm :     0.0034169 Eh/α   predicted    -0.6258063E-04 ( -41.26%)
   displ. norm   :     0.1137230 α      lambda       -0.6740112E-04
   maximum displ.:     0.0635245 α      in ANC's #1, #5, #3, ...

........................................................................
.............................. CYCLE   24 ..............................
........................................................................

 iter      E             dE          RMSdq      gap      omega  full diag
   1    -32.0759252 -0.320759E+02  0.345E-02    3.64       0.0  T
   2    -32.0759253 -0.123568E-06  0.202E-02    3.64       1.0  T
   3    -32.0759252  0.634527E-07  0.250E-03    3.64       7.8  T
   4    -32.0759253 -0.831113E-07  0.101E-03    3.64      19.5  T
   5    -32.0759253 -0.140753E-07  0.273E-04    3.64      71.9  T
   6    -32.0759253 -0.263412E-09  0.126E-04    3.64     156.2  T
   7    -32.0759253 -0.323794E-10  0.514E-05    3.64     381.6  T
   8    -32.0759253 -0.986233E-11  0.130E-05    3.64    1511.1  T
   9    -32.0759253 -0.211742E-11  0.587E-06    3.64    3343.0  T
  10    -32.0759253 -0.355271E-12  0.213E-06    3.64    9186.0  T
     SCC iter.                  ...        0 min,  0.074 sec
     gradient                   ...        0 min,  0.002 sec
 * total energy  :   -31.5551124 Eh     change       -0.5764389E-04 Eh
   gradient norm :     0.0028968 Eh/α   predicted    -0.3414123E-04 ( -40.77%)
   displ. norm   :     0.2446451 α      lambda       -0.1301629E-03
   maximum displ.:     0.1398594 α      in ANC's #1, #5, #3, ...

........................................................................
.............................. CYCLE   25 ..............................
........................................................................

 iter      E             dE          RMSdq      gap      omega  full diag
   1    -32.0749885 -0.320750E+02  0.743E-02    3.63       0.0  T
   2    -32.0749890 -0.501224E-06  0.436E-02    3.63       1.0  T
   3    -32.0749884  0.544289E-06  0.628E-03    3.63       3.1  T
   4    -32.0749891 -0.679799E-06  0.198E-03    3.63       9.9  T
   5    -32.0749892 -0.341752E-07  0.697E-04    3.63      28.1  T
   6    -32.0749892 -0.272754E-08  0.341E-04    3.63      57.5  T
   7    -32.0749892 -0.752394E-10  0.792E-05    3.63     247.7  T
   8    -32.0749892 -0.605169E-10  0.316E-05    3.63     619.9  T
   9    -32.0749892 -0.150067E-10  0.109E-05    3.63    1802.9  T
  10    -32.0749892 -0.178346E-11  0.440E-06    3.63    4461.7  T
  11    -32.0749892 -0.142109E-13  0.209E-06    3.63    9402.8  T
     SCC iter.                  ...        0 min,  0.074 sec
     gradient                   ...        0 min,  0.002 sec
 * total energy  :   -31.5552022 Eh     change       -0.8978947E-04 Eh
   gradient norm :     0.0025492 Eh/α   predicted    -0.6899502E-04 ( -23.16%)
   displ. norm   :     0.1618485 α      lambda       -0.6009339E-04
   maximum displ.:     0.1039933 α      in ANC's #1, #3, #5, ...

........................................................................
.............................. CYCLE   26 ..............................
........................................................................

 iter      E             dE          RMSdq      gap      omega  full diag
   1    -32.0750904 -0.320751E+02  0.517E-02    3.63       0.0  T
   2    -32.0750906 -0.175654E-06  0.304E-02    3.64       1.0  T
   3    -32.0750903  0.323112E-06  0.443E-03    3.64       4.4  T
   4    -32.0750907 -0.395026E-06  0.980E-04    3.64      20.0  T
   5    -32.0750907 -0.601874E-08  0.397E-04    3.64      49.4  T
   6    -32.0750907 -0.320945E-09  0.175E-04    3.64     112.1  T
   7    -32.0750907 -0.117190E-09  0.530E-05    3.64     370.1  T
   8    -32.0750907 -0.145590E-10  0.249E-05    3.64     788.2  T
   9    -32.0750907 -0.916600E-11  0.793E-06    3.64    2472.0  T
  10    -32.0750907 -0.376588E-12  0.232E-06    3.64    8451.4  T
     SCC iter.                  ...        0 min,  0.073 sec
     gradient                   ...        0 min,  0.002 sec
 * total energy  :   -31.5552483 Eh     change       -0.4607235E-04 Eh
   gradient norm :     0.0021307 Eh/α   predicted    -0.3083455E-04 ( -33.07%)
   displ. norm   :     0.1629184 α      lambda       -0.5307642E-04
   maximum displ.:     0.1094958 α      in ANC's #1, #3, #5, ...

........................................................................
.............................. CYCLE   27 ..............................
........................................................................

 iter      E             dE          RMSdq      gap      omega  full diag
   1    -32.0757472 -0.320757E+02  0.539E-02    3.64       0.0  T
   2    -32.0757474 -0.191789E-06  0.317E-02    3.64       1.0  T
   3    -32.0757471  0.316245E-06  0.452E-03    3.64       4.3  T
   4    -32.0757475 -0.383190E-06  0.103E-03    3.64      19.0  T
   5    -32.0757475 -0.106224E-07  0.454E-04    3.64      43.2  T
   6    -32.0757475 -0.841830E-09  0.175E-04    3.64     111.8  T
   7    -32.0757475 -0.832472E-10  0.627E-05    3.64     313.0  T
   8    -32.0757475 -0.473790E-10  0.207E-05    3.64     949.5  T
   9    -32.0757475 -0.208189E-11  0.708E-06    3.64    2771.1  T
  10    -32.0757475 -0.511591E-12  0.197E-06    3.64    9968.5  T
     SCC iter.                  ...        0 min,  0.074 sec
     gradient                   ...        0 min,  0.002 sec
 * total energy  :   -31.5552919 Eh     change       -0.4354504E-04 Eh
   gradient norm :     0.0018926 Eh/α   predicted    -0.2724358E-04 ( -37.44%)
   displ. norm   :     0.3270967 α      lambda       -0.5704583E-04
   maximum displ.:     0.2184658 α      in ANC's #1, #3, #4, ...

........................................................................
.............................. CYCLE   28 ..............................
........................................................................

 iter      E             dE          RMSdq      gap      omega  full diag
   1    -32.0756912 -0.320757E+02  0.108E-01    3.63       0.0  T
   2    -32.0756918 -0.586394E-06  0.634E-02    3.64       1.0  T
   3    -32.0756907  0.109111E-05  0.798E-03    3.64       2.5  T
   4    -32.0756920 -0.135307E-05  0.199E-03    3.64       9.9  T
   5    -32.0756921 -0.277515E-07  0.662E-04    3.64      29.6  T
   6    -32.0756921  0.554934E-11  0.272E-04    3.64      72.2  T
   7    -32.0756921 -0.638103E-09  0.682E-05    3.64     287.6  T
   8    -32.0756921 -0.526370E-10  0.270E-05    3.64     726.2  T
   9    -32.0756921 -0.238742E-11  0.116E-05    3.64    1689.5  T
  10    -32.0756921 -0.140687E-11  0.330E-06    3.64    5938.2  T
  11    -32.0756921 -0.710543E-14  0.175E-06    3.64   11212.7  T
     SCC iter.                  ...        0 min,  0.075 sec
     gradient                   ...        0 min,  0.002 sec
 * total energy  :   -31.5553528 Eh     change       -0.6095838E-04 Eh
   gradient norm :     0.0025615 Eh/α   predicted    -0.2987947E-04 ( -50.98%)
   displ. norm   :     0.1526804 α      lambda       -0.4944651E-04
   maximum displ.:     0.1131709 α      in ANC's #1, #3, #4, ...

........................................................................
.............................. CYCLE   29 ..............................
........................................................................

 iter      E             dE          RMSdq      gap      omega  full diag
   1    -32.0771870 -0.320772E+02  0.541E-02    3.64       0.0  T
   2    -32.0771875 -0.434129E-06  0.319E-02    3.64       1.0  T
   3    -32.0771873  0.196969E-06  0.489E-03    3.64       4.0  T
   4    -32.0771875 -0.261897E-06  0.141E-03    3.64      13.9  T
   5    -32.0771875 -0.160272E-07  0.799E-04    3.64      24.6  T
   6    -32.0771875 -0.329229E-08  0.286E-04    3.64      68.5  T
   7    -32.0771875 -0.256293E-09  0.750E-05    3.64     261.5  T
   8    -32.0771875 -0.660805E-11  0.309E-05    3.64     635.2  T
   9    -32.0771875 -0.603251E-11  0.126E-05    3.64    1554.4  T
  10    -32.0771875 -0.111555E-11  0.380E-06    3.64    5164.4  T
  11    -32.0771875 -0.781597E-13  0.114E-06    3.64   17174.1  T
     SCC iter.                  ...        0 min,  0.075 sec
     gradient                   ...        0 min,  0.002 sec
 * total energy  :   -31.5553816 Eh     change       -0.2877408E-04 Eh
   gradient norm :     0.0025072 Eh/α   predicted    -0.2529984E-04 ( -12.07%)
   displ. norm   :     0.1763809 α      lambda       -0.3248214E-04
   maximum displ.:     0.1274806 α      in ANC's #1, #3, #4, ...

........................................................................
.............................. CYCLE   30 ..............................
........................................................................

 iter      E             dE          RMSdq      gap      omega  full diag
   1    -32.0764935 -0.320765E+02  0.615E-02    3.63       0.0  T
   2    -32.0764938 -0.269383E-06  0.360E-02    3.63       1.0  T
   3    -32.0764936  0.254703E-06  0.379E-03    3.63       5.2  T
   4    -32.0764939 -0.317446E-06  0.137E-03    3.63      14.3  T
   5    -32.0764939 -0.206808E-07  0.459E-04    3.63      42.8  T
   6    -32.0764939 -0.107029E-09  0.171E-04    3.63     114.4  T
   7    -32.0764939  0.492406E-11  0.451E-05    3.63     435.0  T
   8    -32.0764939 -0.411262E-10  0.126E-05    3.63    1556.1  T
   9    -32.0764939 -0.112976E-11  0.568E-06    3.63    3452.4  T
  10    -32.0764939 -0.348166E-12  0.186E-06    3.63   10561.2  T
     SCC iter.                  ...        0 min,  0.075 sec
     gradient                   ...        0 min,  0.002 sec
 * total energy  :   -31.5554068 Eh     change       -0.2519548E-04 Eh
   gradient norm :     0.0010651 Eh/α   predicted    -0.1674673E-04 ( -33.53%)
   displ. norm   :     0.1212762 α      lambda       -0.1253625E-04
   maximum displ.:     0.0982782 α      in ANC's #1, #4, #3, ...

........................................................................
.............................. CYCLE   31 ..............................
........................................................................

 iter      E             dE          RMSdq      gap      omega  full diag
   1    -32.0763779 -0.320764E+02  0.451E-02    3.64       0.0  T
   2    -32.0763780 -0.125525E-06  0.264E-02    3.64       1.0  T
   3    -32.0763779  0.928563E-07  0.246E-03    3.64       8.0  T
   4    -32.0763780 -0.119011E-06  0.985E-04    3.64      19.9  T
   5    -32.0763780 -0.129051E-07  0.282E-04    3.64      69.6  T
   6    -32.0763780 -0.554081E-10  0.132E-04    3.64     148.8  T
   7    -32.0763780 -0.404867E-10  0.425E-05    3.64     461.9  T
   8    -32.0763780 -0.173017E-10  0.118E-05    3.64    1668.1  T
   9    -32.0763780 -0.171241E-11  0.539E-06    3.64    3641.1  T
  10    -32.0763780 -0.213163E-12  0.143E-06    3.64   13756.9  T
     SCC iter.                  ...        0 min,  0.073 sec
     gradient                   ...        0 min,  0.002 sec
 * total energy  :   -31.5554219 Eh     change       -0.1509502E-04 Eh
   gradient norm :     0.0007127 Eh/α   predicted    -0.6312663E-05 ( -58.18%)
   displ. norm   :     0.0587953 α      lambda       -0.8438972E-05
   maximum displ.:     0.0542822 α      in ANC's #1, #2, #4, ...

........................................................................
.............................. CYCLE   32 ..............................
........................................................................

 iter      E             dE          RMSdq      gap      omega  full diag
   1    -32.0767014 -0.320767E+02  0.241E-02    3.64       0.0  T
   2    -32.0767014 -0.339919E-07  0.141E-02    3.64       1.4  T
   3    -32.0767014  0.834744E-08  0.136E-03    3.64      14.4  T
   4    -32.0767014 -0.165325E-07  0.398E-04    3.64      49.3  T
   5    -32.0767014 -0.925802E-09  0.214E-04    3.64      91.7  T
   6    -32.0767014 -0.499277E-09  0.960E-05    3.64     204.2  T
   7    -32.0767014 -0.241300E-10  0.221E-05    3.64     888.5  T
   8    -32.0767014 -0.207478E-11  0.892E-06    3.64    2198.9  T
   9    -32.0767014 -0.738964E-12  0.360E-06    3.64    5441.5  T
     SCC iter.                  ...        0 min,  0.073 sec
     gradient                   ...        0 min,  0.002 sec
 * total energy  :   -31.5554328 Eh     change       -0.1090701E-04 Eh
   gradient norm :     0.0008213 Eh/α   predicted    -0.4227185E-05 ( -61.24%)
   displ. norm   :     0.0562328 α      lambda       -0.8181924E-05
   maximum displ.:     0.0506112 α      in ANC's #1, #3, #2, ...

........................................................................
.............................. CYCLE   33 ..............................
........................................................................

 iter      E             dE          RMSdq      gap      omega  full diag
   1    -32.0768037 -0.320768E+02  0.219E-02    3.64       0.0  T
   2    -32.0768038 -0.228772E-07  0.128E-02    3.64       1.5  T
   3    -32.0768038  0.787510E-08  0.122E-03    3.64      16.0  T
   4    -32.0768038 -0.155823E-07  0.316E-04    3.64      62.0  T
   5    -32.0768038 -0.183881E-09  0.191E-04    3.64     102.6  T
   6    -32.0768038 -0.244562E-09  0.598E-05    3.64     328.1  T
   7    -32.0768038 -0.151203E-10  0.188E-05    3.64    1045.5  T
   8    -32.0768038 -0.852651E-12  0.891E-06    3.64    2201.7  T
   9    -32.0768038 -0.746070E-12  0.234E-06    3.64    8380.9  T
     SCC iter.                  ...        0 min,  0.073 sec
     gradient                   ...        0 min,  0.002 sec
 * total energy  :   -31.5554437 Eh     change       -0.1088680E-04 Eh
   gradient norm :     0.0007183 Eh/α   predicted    -0.4097849E-05 ( -62.36%)
   displ. norm   :     0.0576185 α      lambda       -0.7788756E-05
   maximum displ.:     0.0469786 α      in ANC's #1, #3, #2, ...

........................................................................
.............................. CYCLE   34 ..............................
........................................................................

 iter      E             dE          RMSdq      gap      omega  full diag
   1    -32.0768804 -0.320769E+02  0.216E-02    3.64       0.0  T
   2    -32.0768804 -0.304199E-07  0.126E-02    3.64       1.6  T
   3    -32.0768804  0.196015E-07  0.167E-03    3.64      11.7  T
   4    -32.0768804 -0.278680E-07  0.357E-04    3.64      55.0  T
   5    -32.0768804 -0.476732E-09  0.192E-04    3.64     102.0  T
   6    -32.0768804 -0.523336E-09  0.787E-05    3.64     249.1  T
   7    -32.0768804 -0.164775E-10  0.151E-05    3.64    1300.2  T
   8    -32.0768804 -0.120082E-11  0.663E-06    3.64    2956.4  T
   9    -32.0768804 -0.277112E-12  0.277E-06    3.64    7090.8  T
     SCC iter.                  ...        0 min,  0.073 sec
     gradient                   ...        0 min,  0.002 sec
 * total energy  :   -31.5554540 Eh     change       -0.1029472E-04 Eh
   gradient norm :     0.0006880 Eh/α   predicted    -0.3900833E-05 ( -62.11%)
   displ. norm   :     0.0685542 α      lambda       -0.8420355E-05
   maximum displ.:     0.0515599 α      in ANC's #1, #3, #2, ...

........................................................................
.............................. CYCLE   35 ..............................
........................................................................

 iter      E             dE          RMSdq      gap      omega  full diag
   1    -32.0769394 -0.320769E+02  0.245E-02    3.64       0.0  T
   2    -32.0769394 -0.376373E-07  0.144E-02    3.64       1.4  T
   3    -32.0769394  0.322203E-07  0.178E-03    3.64      11.0  T
   4    -32.0769395 -0.437529E-07  0.468E-04    3.64      41.9  T
   5    -32.0769395 -0.136153E-08  0.225E-04    3.64      87.1  T
   6    -32.0769395 -0.377888E-09  0.933E-05    3.64     210.1  T
   7    -32.0769395 -0.219131E-10  0.238E-05    3.64     825.6  T
   8    -32.0769395 -0.388667E-11  0.111E-05    3.64    1771.2  T
   9    -32.0769395 -0.128608E-11  0.428E-06    3.64    4579.2  T
  10    -32.0769395 -0.142109E-13  0.981E-07    3.64   19986.8  T
     SCC iter.                  ...        0 min,  0.073 sec
     gradient                   ...        0 min,  0.002 sec
 * total energy  :   -31.5554652 Eh     change       -0.1124741E-04 Eh
   gradient norm :     0.0007308 Eh/α   predicted    -0.4220635E-05 ( -62.47%)
   displ. norm   :     0.0930646 α      lambda       -0.1039401E-04
   maximum displ.:     0.0665525 α      in ANC's #1, #3, #2, ...

........................................................................
.............................. CYCLE   36 ..............................
........................................................................

 iter      E             dE          RMSdq      gap      omega  full diag
   1    -32.0768024 -0.320768E+02  0.338E-02    3.64       0.0  T
   2    -32.0768024 -0.707392E-07  0.198E-02    3.64       1.0  T
   3    -32.0768024  0.469429E-07  0.226E-03    3.64       8.7  T
   4    -32.0768024 -0.653435E-07  0.677E-04    3.64      29.0  T
   5    -32.0768025 -0.298549E-08  0.299E-04    3.64      65.6  T
   6    -32.0768025 -0.890253E-09  0.136E-04    3.64     143.7  T
   7    -32.0768025 -0.538023E-10  0.301E-05    3.64     651.4  T
   8    -32.0768025 -0.109068E-10  0.131E-05    3.64    1495.7  T
   9    -32.0768025 -0.182609E-11  0.560E-06    3.64    3499.1  T
  10    -32.0768025 -0.710543E-13  0.166E-06    3.64   11829.8  T
     SCC iter.                  ...        0 min,  0.077 sec
     gradient                   ...        0 min,  0.002 sec
 * total energy  :   -31.5554793 Eh     change       -0.1409324E-04 Eh
   gradient norm :     0.0006924 Eh/α   predicted    -0.5218385E-05 ( -62.97%)
   displ. norm   :     0.1697001 α      lambda       -0.1713668E-04
   maximum displ.:     0.1170657 α      in ANC's #1, #3, #2, ...

........................................................................
.............................. CYCLE   37 ..............................
........................................................................

 iter      E             dE          RMSdq      gap      omega  full diag
   1    -32.0764682 -0.320765E+02  0.628E-02    3.64       0.0  T
   2    -32.0764684 -0.269643E-06  0.368E-02    3.64       1.0  T
   3    -32.0764683  0.133453E-06  0.410E-03    3.64       4.8  T
   4    -32.0764685 -0.189135E-06  0.136E-03    3.64      14.4  T
   5    -32.0764685 -0.167951E-07  0.553E-04    3.64      35.5  T
   6    -32.0764685 -0.378711E-08  0.264E-04    3.64      74.4  T
   7    -32.0764685 -0.159702E-09  0.568E-05    3.64     345.4  T
   8    -32.0764685 -0.435563E-10  0.235E-05    3.64     833.1  T
   9    -32.0764685 -0.780176E-11  0.102E-05    3.64    1923.2  T
  10    -32.0764685 -0.227374E-12  0.244E-06    3.64    8051.4  T
  11    -32.0764685  0.142109E-13  0.933E-07    3.64   21025.4  T
     SCC iter.                  ...        0 min,  0.075 sec
     gradient                   ...        0 min,  0.002 sec
 * total energy  :   -31.5555009 Eh     change       -0.2162664E-04 Eh
   gradient norm :     0.0007065 Eh/α   predicted    -0.8682000E-05 ( -59.86%)
   displ. norm   :     0.3251742 α      lambda       -0.2672531E-04
   maximum displ.:     0.2258061 α      in ANC's #1, #3, #2, ...

........................................................................
.............................. CYCLE   38 ..............................
........................................................................

 iter      E             dE          RMSdq      gap      omega  full diag
   1    -32.0752252 -0.320752E+02  0.125E-01    3.64       0.0  T
   2    -32.0752263 -0.107571E-05  0.734E-02    3.65       1.0  T
   3    -32.0752258  0.439058E-06  0.753E-03    3.65       2.6  T
   4    -32.0752265 -0.643499E-06  0.263E-03    3.65       7.5  T
   5    -32.0752266 -0.610310E-07  0.106E-03    3.65      18.4  T
   6    -32.0752266 -0.124550E-07  0.510E-04    3.65      38.4  T
   7    -32.0752266 -0.745494E-09  0.127E-04    3.65     154.2  T
   8    -32.0752266 -0.128423E-09  0.482E-05    3.65     406.5  T
   9    -32.0752266 -0.370619E-10  0.202E-05    3.65     972.7  T
  10    -32.0752266 -0.105871E-11  0.660E-06    3.65    2972.6  T
  11    -32.0752266 -0.149214E-12  0.224E-06    3.65    8756.4  T
     SCC iter.                  ...        0 min,  0.074 sec
     gradient                   ...        0 min,  0.002 sec
 * total energy  :   -31.5555232 Eh     change       -0.2231316E-04 Eh
   gradient norm :     0.0020089 Eh/α   predicted    -0.1399181E-04 ( -37.29%)
   displ. norm   :     0.0572311 α      lambda       -0.1019691E-04
   maximum displ.:     0.0391638 α      in ANC's #1, #2, #4, ...

........................................................................
.............................. CYCLE   39 ..............................
........................................................................

 iter      E             dE          RMSdq      gap      omega  full diag
   1    -32.0756809 -0.320757E+02  0.248E-02    3.65       0.0  T
   2    -32.0756809 -0.385825E-07  0.146E-02    3.65       1.3  T
   3    -32.0756809  0.195876E-07  0.160E-03    3.65      12.2  T
   4    -32.0756810 -0.285660E-07  0.460E-04    3.65      42.7  T
   5    -32.0756810 -0.139023E-08  0.221E-04    3.65      88.8  T
   6    -32.0756810 -0.607940E-09  0.959E-05    3.65     204.5  T
   7    -32.0756810 -0.176072E-10  0.216E-05    3.65     908.7  T
   8    -32.0756810 -0.673595E-11  0.852E-06    3.65    2303.0  T
   9    -32.0756810 -0.724754E-12  0.372E-06    3.65    5267.5  T
     SCC iter.                  ...        0 min,  0.073 sec
     gradient                   ...        0 min,  0.002 sec
 * total energy  :   -31.5555322 Eh     change       -0.8965825E-05 Eh
   gradient norm :     0.0015302 Eh/α   predicted    -0.5115649E-05 ( -42.94%)
   displ. norm   :     0.2477532 α      lambda       -0.2994476E-04
   maximum displ.:     0.1603460 α      in ANC's #1, #2, #4, ...

........................................................................
.............................. CYCLE   40 ..............................
........................................................................

 iter      E             dE          RMSdq      gap      omega  full diag
   1    -32.0774132 -0.320774E+02  0.109E-01    3.65       0.0  T
   2    -32.0774139 -0.727223E-06  0.640E-02    3.65       1.0  T
   3    -32.0774137  0.184727E-06  0.594E-03    3.65       3.3  T
   4    -32.0774141 -0.325808E-06  0.195E-03    3.65      10.1  T
   5    -32.0774141 -0.311373E-07  0.900E-04    3.65      21.8  T
   6    -32.0774141 -0.929118E-08  0.404E-04    3.65      48.5  T
   7    -32.0774141 -0.330971E-09  0.929E-05    3.65     211.2  T
   8    -32.0774141 -0.814779E-10  0.399E-05    3.65     492.0  T
   9    -32.0774141 -0.154827E-10  0.184E-05    3.65    1067.3  T
  10    -32.0774141 -0.362377E-12  0.556E-06    3.65    3530.1  T
  11    -32.0774141 -0.106581E-12  0.138E-06    3.65   14170.4  T
     SCC iter.                  ...        0 min,  0.077 sec
     gradient                   ...        0 min,  0.002 sec
 * total energy  :   -31.5555613 Eh     change       -0.2906819E-04 Eh
   gradient norm :     0.0013431 Eh/α   predicted    -0.1538377E-04 ( -47.08%)
   displ. norm   :     0.2423930 α      lambda        0.3087640E-05
   maximum displ.:     0.1568151 α      in ANC's #1, #2, #4, ...

........................................................................
.............................. CYCLE   41 ..............................
........................................................................

 iter      E             dE          RMSdq      gap      omega  full diag
   1    -32.0783064 -0.320783E+02  0.107E-01    3.65       0.0  T
   2    -32.0783071 -0.711273E-06  0.627E-02    3.65       1.0  T
   3    -32.0783070  0.144993E-06  0.596E-03    3.65       3.3  T
   4    -32.0783073 -0.285476E-06  0.181E-03    3.65      10.8  T
   5    -32.0783073 -0.196616E-07  0.921E-04    3.65      21.3  T
   6    -32.0783073 -0.104424E-07  0.405E-04    3.65      48.4  T
   7    -32.0783073 -0.362782E-09  0.875E-05    3.65     224.1  T
   8    -32.0783073 -0.526867E-10  0.390E-05    3.65     503.3  T
   9    -32.0783073 -0.131024E-10  0.196E-05    3.65    1002.3  T
  10    -32.0783073 -0.490274E-12  0.454E-06    3.65    4319.6  T
  11    -32.0783073 -0.497380E-13  0.135E-06    3.65   14492.9  T
     SCC iter.                  ...        0 min,  0.076 sec
     gradient                   ...        0 min,  0.002 sec
 * total energy  :   -31.5555642 Eh     change       -0.2941001E-05 Eh
   gradient norm :     0.0033386 Eh/α   predicted     0.1580329E-05 (-153.73%)
   displ. norm   :     0.1053887 α      lambda       -0.1989613E-04
   maximum displ.:     0.0752256 α      in ANC's #1, #2, #3, ...

........................................................................
.............................. CYCLE   42 ..............................
........................................................................

 iter      E             dE          RMSdq      gap      omega  full diag
   1    -32.0772362 -0.320772E+02  0.467E-02    3.65       0.0  T
   2    -32.0772363 -0.131671E-06  0.273E-02    3.65       1.0  T
   3    -32.0772363  0.213293E-07  0.211E-03    3.65       9.3  T
   4    -32.0772363 -0.456791E-07  0.767E-04    3.65      25.6  T
   5    -32.0772363 -0.521565E-08  0.296E-04    3.65      66.2  T
   6    -32.0772363 -0.715900E-09  0.154E-04    3.65     127.3  T
   7    -32.0772363 -0.103370E-09  0.456E-05    3.65     430.2  T
   8    -32.0772363 -0.898837E-11  0.146E-05    3.65    1347.0  T
   9    -32.0772363 -0.316192E-11  0.582E-06    3.65    3372.4  T
  10    -32.0772363 -0.781597E-13  0.200E-06    3.65    9823.0  T
     SCC iter.                  ...        0 min,  0.076 sec
     gradient                   ...        0 min,  0.002 sec
 * total energy  :   -31.5555802 Eh     change       -0.1598611E-04 Eh
   gradient norm :     0.0021788 Eh/α   predicted    -0.1006044E-04 ( -37.07%)
   displ. norm   :     0.1198554 α      lambda       -0.4020676E-04
   maximum displ.:     0.0778715 α      in ANC's #2, #1, #5, ...
 * RMSD in coord.:     0.5281600 α      energy gain  -0.8293813E-03 Eh

generating ANC from model Hessian ...
Using Lindh-Hessian (1995)
 Shifting diagonal of input Hessian by   9.145906901906611E-003
 Lowest  eigenvalues of input Hessian
    0.000000    0.000000    0.000000    0.000000    0.000000    0.000000
    0.010000    0.010114    0.010591    0.011232    0.012187    0.012405
    0.015031    0.017089    0.018447    0.019310    0.024213    0.024759
 Highest eigenvalues
    1.363337    1.551064    1.576764    1.881458    1.986567    2.004211
 

........................................................................
.............................. CYCLE   43 ..............................
........................................................................

 iter      E             dE          RMSdq      gap      omega  full diag
   1    -32.0765894 -0.320766E+02  0.536E-02    3.65       0.0  T
   2    -32.0765897 -0.282468E-06  0.314E-02    3.65       1.0  T
   3    -32.0765897  0.228795E-07  0.249E-03    3.65       7.9  T
   4    -32.0765897 -0.545552E-07  0.945E-04    3.65      20.8  T
   5    -32.0765897 -0.825175E-08  0.481E-04    3.65      40.8  T
   6    -32.0765898 -0.219482E-08  0.183E-04    3.65     107.3  T
   7    -32.0765898 -0.177209E-10  0.489E-05    3.65     401.0  T
   8    -32.0765898 -0.257003E-10  0.149E-05    3.65    1313.3  T
   9    -32.0765898 -0.173372E-11  0.794E-06    3.65    2468.9  T
  10    -32.0765898 -0.760281E-12  0.292E-06    3.65    6708.4  T
     SCC iter.                  ...        0 min,  0.075 sec
     gradient                   ...        0 min,  0.002 sec
 * total energy  :   -31.5556047 Eh     change       -0.2447486E-04 Eh
   gradient norm :     0.0015080 Eh/α   predicted     0.0000000E+00 (-100.00%)
   displ. norm   :     0.0296564 α      lambda       -0.9274974E-05
   maximum displ.:     0.0182414 α      in ANC's #2, #6, #23, ...

........................................................................
.............................. CYCLE   44 ..............................
........................................................................

 iter      E             dE          RMSdq      gap      omega  full diag
   1    -32.0768946 -0.320769E+02  0.152E-02    3.65       0.0  T
   2    -32.0768946 -0.465137E-07  0.922E-03    3.65       2.1  T
   3    -32.0768946  0.121108E-07  0.164E-03    3.65      12.0  T
   4    -32.0768947 -0.206840E-07  0.312E-04    3.65      62.8  T
   5    -32.0768947 -0.362810E-09  0.160E-04    3.65     122.3  T
   6    -32.0768947 -0.238458E-09  0.776E-05    3.65     252.7  T
   7    -32.0768947 -0.430731E-10  0.254E-05    3.65     773.1  T
   8    -32.0768947 -0.341061E-11  0.604E-06    3.65    3248.8  T
   9    -32.0768947 -0.468958E-12  0.275E-06    3.65    7119.5  T
     SCC iter.                  ...        0 min,  0.073 sec
     gradient                   ...        0 min,  0.002 sec
 * total energy  :   -31.5556119 Eh     change       -0.7211870E-05 Eh
   gradient norm :     0.0005187 Eh/α   predicted    -0.4644675E-05 ( -35.60%)
   displ. norm   :     0.0320090 α      lambda       -0.4338781E-05
   maximum displ.:     0.0200616 α      in ANC's #2, #6, #1, ...

........................................................................
.............................. CYCLE   45 ..............................
........................................................................

 iter      E             dE          RMSdq      gap      omega  full diag
   1    -32.0769644 -0.320770E+02  0.120E-02    3.65       0.0  T
   2    -32.0769644 -0.181379E-07  0.706E-03    3.65       2.8  T
   3    -32.0769644  0.402659E-08  0.885E-04    3.65      22.2  T
   4    -32.0769644 -0.533910E-08  0.402E-04    3.65      48.8  T
   5    -32.0769644 -0.187177E-08  0.132E-04    3.65     148.2  T
   6    -32.0769644 -0.146791E-09  0.517E-05    3.65     379.4  T
   7    -32.0769644 -0.326850E-12  0.180E-05    3.65    1089.5  T
   8    -32.0769644 -0.181188E-11  0.601E-06    3.65    3264.5  T
   9    -32.0769644 -0.326850E-12  0.162E-06    3.65   12118.4  T
     SCC iter.                  ...        0 min,  0.074 sec
     gradient                   ...        0 min,  0.002 sec
 * total energy  :   -31.5556169 Eh     change       -0.4964223E-05 Eh
   gradient norm :     0.0007176 Eh/α   predicted    -0.2170947E-05 ( -56.27%)
   displ. norm   :     0.0581035 α      lambda       -0.5522688E-05
   maximum displ.:     0.0361770 α      in ANC's #2, #6, #1, ...

........................................................................
.............................. CYCLE   46 ..............................
........................................................................

 iter      E             dE          RMSdq      gap      omega  full diag
   1    -32.0768572 -0.320769E+02  0.211E-02    3.65       0.0  T
   2    -32.0768573 -0.260327E-07  0.123E-02    3.65       1.6  T
   3    -32.0768573  0.659134E-08  0.103E-03    3.65      19.1  T
   4    -32.0768573 -0.103554E-07  0.488E-04    3.65      40.2  T
   5    -32.0768573 -0.357755E-08  0.154E-04    3.65     127.7  T
   6    -32.0768573 -0.433715E-10  0.545E-05    3.65     360.1  T
   7    -32.0768573 -0.236469E-10  0.231E-05    3.65     850.3  T
   8    -32.0768573 -0.930100E-11  0.667E-06    3.65    2939.7  T
   9    -32.0768573 -0.248690E-12  0.244E-06    3.65    8043.9  T
     SCC iter.                  ...        0 min,  0.074 sec
     gradient                   ...        0 min,  0.002 sec
 * total energy  :   -31.5556231 Eh     change       -0.6205328E-05 Eh
   gradient norm :     0.0004679 Eh/α   predicted    -0.2765755E-05 ( -55.43%)
   displ. norm   :     0.0624699 α      lambda       -0.4071110E-05
   maximum displ.:     0.0390361 α      in ANC's #2, #1, #6, ...

........................................................................
.............................. CYCLE   47 ..............................
........................................................................

 iter      E             dE          RMSdq      gap      omega  full diag
   1    -32.0768198 -0.320768E+02  0.233E-02    3.65       0.0  T
   2    -32.0768198 -0.299485E-07  0.137E-02    3.65       1.4  T
   3    -32.0768198  0.343748E-08  0.904E-04    3.65      21.7  T
[...]
         :: add. restraining           0.000000000000 Eh    ::
         :: total charge              -0.000000000000 e     ::
         :::::::::::::::::::::::::::::::::::::::::::::::::::::

           ------------------------------------------------- 
          |                Numerical Hessian                |
           ------------------------------------------------- 
step length          :   0.00500
SCC accuracy         :   0.30000
Hessian scale factor :   1.00000
frozen atoms in %    :   0.00000    0
RMS gradient         :   0.00004
estimated CPU  time      1.12 min
estimated wall time      0.14 min

writing file <hessian>.

 projected vibrational frequencies (cm⁻¹)
eigval :       -0.00    -0.00    -0.00     0.00     0.00     0.00
eigval :       24.77    64.73    85.47   113.47   161.57   170.53
eigval :      201.30   222.76   248.47   262.54   314.66   361.33
eigval :      366.35   392.61   473.19   585.80   648.65   659.34
eigval :      679.17   690.40   736.53   760.67   769.52   872.82
eigval :      896.05   925.81   931.61   967.51   982.26   995.16
eigval :     1013.55  1017.29  1063.80  1077.76  1084.86  1115.14
eigval :     1123.34  1181.73  1203.80  1222.75  1230.86  1250.26
eigval :     1268.47  1280.28  1317.26  1407.84  1412.78  1421.41
eigval :     1448.94  1451.33  1461.83  1496.50  1499.44  1505.03
eigval :     1506.61  1578.18  1589.23  2936.17  2941.20  2951.24
eigval :     2955.38  3011.66  3012.12  3023.50  3025.18  3034.24
eigval :     3041.08  3054.46  3067.44  3074.43  3086.80  3093.53
           -------------------------------------------------
          |                Property Printout                |
           -------------------------------------------------

    * Orbital Energies and Occupations

         #    Occupation            Energy/Eh            Energy/eV
      -------------------------------------------------------------
         1        2.0000           -0.6587657             -17.9259
       ...           ...                  ...                  ...
        18        2.0000           -0.4754164             -12.9367
        19        2.0000           -0.4741860             -12.9033
        20        2.0000           -0.4670836             -12.7100
        21        2.0000           -0.4609945             -12.5443
        22        2.0000           -0.4564966             -12.4219
        23        2.0000           -0.4434369             -12.0665
        24        2.0000           -0.4382028             -11.9241
        25        2.0000           -0.4239205             -11.5355
        26        2.0000           -0.4163556             -11.3296
        27        2.0000           -0.4071238             -11.0784
        28        2.0000           -0.4029338             -10.9644
        29        2.0000           -0.3995032             -10.8710
        30        2.0000           -0.3641225              -9.9083 (HOMO)
        31                         -0.2300677              -6.2605 (LUMO)
        32                         -0.2215968              -6.0300
        33                         -0.1545287              -4.2049
        34                         -0.1502104              -4.0874
        35                         -0.0931204              -2.5339
        36                          0.0036078               0.0982
        37                          0.0492356               1.3398
        38                          0.0993024               2.7022
        39                          0.1123799               3.0580
        40                          0.1210793               3.2947
        41                          0.1307322               3.5574
       ...                                ...                  ...
        64                          0.7774499              21.1555
      -------------------------------------------------------------
                  HL-Gap            0.1340548 Eh            3.6478 eV
             Fermi-level           -0.2970951 Eh           -8.0844 eV

     #   Z          covCN         q      C6AA      α(0)
     1  15 P        3.030    -0.114   165.432    23.106
     2   6 C        3.748    -0.045    21.454     6.606
     3   1 H        0.926     0.040     2.447     2.446
     4   1 H        0.925     0.046     2.367     2.406
     5   6 C        3.821    -0.098    22.342     6.726
     6   1 H        0.925     0.041     2.434     2.440
     7   1 H        0.925     0.039     2.464     2.455
     8   1 H        0.925     0.031     2.569     2.507
     9   6 C        2.915     0.012    27.744     8.637
    10   6 C        3.033    -0.030    28.717     8.790
    11   6 C        2.955    -0.033    28.819     8.805
    12   6 C        2.918    -0.030    28.748     8.792
    13   6 C        2.920    -0.032    28.788     8.799
    14   6 C        2.920    -0.031    28.774     8.796
    15   1 H        0.925     0.035     2.523     2.484
    16   1 H        0.926     0.036     2.506     2.476
    17   1 H        0.926     0.029     2.606     2.524
    18   1 H        0.926     0.027     2.629     2.535
    19   1 H        0.926     0.028     2.617     2.530
    20   6 C        3.747    -0.046    21.461     6.608
    21   1 H        0.926     0.040     2.450     2.448
    22   1 H        0.926     0.042     2.421     2.433
    23   6 C        3.780    -0.096    22.347     6.734
    24   1 H        0.925     0.037     2.486     2.466
    25   1 H        0.925     0.038     2.471     2.458
    26   1 H        0.925     0.033     2.540     2.492

 Mol. C6AA /au·bohr⁶  :       7599.395690
 Mol. C8AA /au·bohr⁸  :     202588.247552
 Mol. α(0) /au        :        139.499563


Wiberg/Mayer (AO) data.
largest (>0.10) Wiberg bond orders for each atom

 ---------------------------------------------------------------------------
     #   Z sym  total        # sym  WBO       # sym  WBO       # sym  WBO
 ---------------------------------------------------------------------------
     1  15 P    3.375 --     2 C    1.030     9 C    1.017    20 C    1.012
     2   6 C    3.995 --     1 P    1.030     5 C    1.016     3 H    0.956
                             4 H    0.949
     3   1 H    0.998 --     2 C    0.956
     4   1 H    0.998 --     2 C    0.949
     5   6 C    3.997 --     2 C    1.016     6 H    0.985     8 H    0.985
                             7 H    0.983
     6   1 H    0.998 --     5 C    0.985
     7   1 H    0.998 --     5 C    0.983
     8   1 H    0.999 --     5 C    0.985
     9   6 C    3.982 --    11 C    1.404    10 C    1.390     1 P    1.017
                            14 C    0.106
    10   6 C    3.992 --    12 C    1.457     9 C    1.390    15 H    0.962
                            13 C    0.110
    11   6 C    3.993 --    13 C    1.439     9 C    1.404    16 H    0.961
                            12 C    0.107
    12   6 C    3.991 --    10 C    1.457    14 C    1.428    17 H    0.970
                            11 C    0.107
    13   6 C    3.993 --    14 C    1.442    11 C    1.439    18 H    0.970
                            10 C    0.110
    14   6 C    3.992 --    13 C    1.442    12 C    1.428    19 H    0.971
                             9 C    0.106
    15   1 H    0.999 --    10 C    0.962
    16   1 H    0.999 --    11 C    0.961
    17   1 H    0.999 --    12 C    0.970
    18   1 H    0.999 --    13 C    0.970
    19   1 H    0.998 --    14 C    0.971
    20   6 C    3.994 --     1 P    1.012    23 C    1.012    21 H    0.957
                            22 H    0.956
    21   1 H    0.998 --    20 C    0.957
    22   1 H    0.998 --    20 C    0.956
    23   6 C    3.997 --    20 C    1.012    24 H    0.985    25 H    0.983
                            26 H    0.983
    24   1 H    0.999 --    23 C    0.985
    25   1 H    0.999 --    23 C    0.983
    26   1 H    0.999 --    23 C    0.983
 ---------------------------------------------------------------------------

Topologies differ in total number of bonds
Writing topology from bond orders to xtbtopo.mol

molecular dipole:
                 x           y           z       tot (Debye)
 q only:       -0.065       0.080       0.302
   full:       -0.346       0.171       0.529       1.663
molecular quadrupole (traceless):
                xx          xy          yy          xz          yz          zz
 q only:        0.627       0.640       2.387       1.980      -2.116      -3.014
  q+dip:        2.150       2.929       2.467       7.065      -6.294      -4.617
   full:        0.759       2.228       4.000       6.866      -4.441      -4.759

           -------------------------------------------------
          |                Geometry Summary                 |
           -------------------------------------------------

      molecular mass/u    :      166.2002322
   center of mass at/Å    :        0.2544641      -0.4622528      -3.1222456
  moments of inertia/u·Å² :        0.3628393E+03   0.7190994E+03   0.8755540E+03
rotational constants/cm⁻¹ :        0.4646033E-01   0.2344270E-01   0.1925367E-01

 * 24 selected distances

     #   Z          #   Z                                           value/Å
     1  15 P        2   6 C                                       1.8633603 (max)
     2   6 C        3   1 H                                       1.0942821
     2   6 C        4   1 H                                       1.0920609
     2   6 C        5   6 C                                       1.5243632
     5   6 C        6   1 H                                       1.0880534
     5   6 C        7   1 H                                       1.0883989
     5   6 C        8   1 H                                       1.0891986
     9   6 C       10   6 C                                       1.3938379
     9   6 C       11   6 C                                       1.3889703
    10   6 C       12   6 C                                       1.3808367
    11   6 C       13   6 C                                       1.3847388
    12   6 C       14   6 C                                       1.3857416
    13   6 C       14   6 C                                       1.3835283
    10   6 C       15   1 H                                       1.0820689
    11   6 C       16   1 H                                       1.0792852 (min)
    12   6 C       17   1 H                                       1.0806012
    13   6 C       18   1 H                                       1.0809645
    14   6 C       19   1 H                                       1.0801855
    20   6 C       21   1 H                                       1.0939944
    20   6 C       22   1 H                                       1.0936386
    20   6 C       23   6 C                                       1.5224488
    23   6 C       24   1 H                                       1.0870949
    23   6 C       25   1 H                                       1.0886574
    23   6 C       26   1 H                                       1.0890756

 * 3 distinct bonds (by element types)

   Z      Z             #   av. dist./Å        max./Å        min./Å
   1 H    6 C          15     1.0871707     1.0942821     1.0792852
   6 C    6 C           8     1.4205582     1.5243632     1.3808367
   6 C   15 P           1     1.8633603     1.8633603     1.8633603

           -------------------------------------------------
          |               Frequency Printout                |
           -------------------------------------------------
 projected vibrational frequencies (cm⁻¹)
eigval :       -0.00    -0.00    -0.00     0.00     0.00     0.00
eigval :       24.77    64.73    85.47   113.47   161.57   170.53
eigval :      201.30   222.76   248.47   262.54   314.66   361.33
eigval :      366.35   392.61   473.19   585.80   648.65   659.34
eigval :      679.17   690.40   736.53   760.67   769.52   872.82
eigval :      896.05   925.81   931.61   967.51   982.26   995.16
eigval :     1013.55  1017.29  1063.80  1077.76  1084.86  1115.14
eigval :     1123.34  1181.73  1203.80  1222.75  1230.86  1250.26
eigval :     1268.47  1280.28  1317.26  1407.84  1412.78  1421.41
eigval :     1448.94  1451.33  1461.83  1496.50  1499.44  1505.03
eigval :     1506.61  1578.18  1589.23  2936.17  2941.20  2951.24
eigval :     2955.38  3011.66  3012.12  3023.50  3025.18  3034.24
eigval :     3041.08  3054.46  3067.44  3074.43  3086.80  3093.53
 reduced masses (amu)
   1: 12.44   2: 13.82   3: 11.27   4: 15.06   5: 14.15   6: 11.16   7:  9.89   8:  8.86
   9:  8.96  10:  9.78  11:  6.63  12:  6.98  13:  7.19  14:  6.89  15:  6.48  16:  8.77
  17: 13.04  18: 12.82  19: 10.54  20: 18.42  21: 12.83  22: 11.18  23: 13.85  24: 11.33
  25: 14.03  26: 12.64  27:  3.34  28:  6.96  29:  4.74  30:  3.30  31:  3.57  32:  4.14
  33:  2.97  34: 10.39  35:  3.26  36:  3.14  37:  3.63  38:  4.41  39:  9.55  40:  9.07
  41:  8.30  42:  8.49  43:  4.39  44:  1.31  45:  1.90  46:  3.63  47:  3.25  48:  4.24
  49:  4.13  50:  3.44  51: 11.94  52:  2.90  53:  2.94  54:  8.53  55:  2.57  56:  4.03
  57:  5.68  58:  1.53  59:  1.56  60:  1.56  61:  1.54  62: 11.43  63: 11.44  64:  1.93
  65:  1.98  66:  1.52  67:  1.51  68:  1.82  69:  1.87  70:  1.90  71:  1.71  72:  1.43
  73:  1.57  74:  1.80  75:  1.77  76:  1.83  77:  1.88  78:  1.86
 IR intensities (km·mol⁻¹)
   1:  0.05   2:  0.04   3:  0.04   4:  0.12   5:  0.09   6:  0.14   7:  0.11   8:  0.04
   9:  0.09  10:  0.33  11:  0.18  12:  0.11  13:  0.13  14:  0.12  15:  0.12  16:  0.55
  17:  0.34  18:  0.67  19:  0.24  20:  0.70  21:  5.20  22:  0.03  23: 11.88  24:  8.45
  25:  8.07  26: 11.32  27: 19.46  28: 36.35  29: 20.92  30:  0.07  31:  0.08  32:  0.07
  33:  0.01  34:  1.91  35:  4.75  36:  2.15  37:  0.82  38:  4.94  39:  6.01  40:  7.61
  41:  0.24  42:  1.44  43:  0.05  44:  0.02  45:  0.68  46:  2.11  47:  2.42  48:  6.45
  49:  6.92  50:  0.77  51:  0.35  52:  1.66  53:  2.39  54:  0.88  55:  0.24  56:  0.54
  57:  0.15  58:  2.05  59:  1.59  60:  1.38  61:  1.81  62:  0.38  63:  4.27  64:  3.27
  65: 42.41  66: 14.52  67: 22.87  68: 53.46  69: 48.03  70: 23.06  71: 28.64  72: 16.62
  73: 24.56  74: 16.12  75:  8.34  76: 49.15  77: 78.28  78: 23.21
 Raman intensities (Ä⁴*amu⁻¹)
   1:  0.00   2:  0.00   3:  0.00   4:  0.00   5:  0.00   6:  0.00   7:  0.00   8:  0.00
   9:  0.00  10:  0.00  11:  0.00  12:  0.00  13:  0.00  14:  0.00  15:  0.00  16:  0.00
  17:  0.00  18:  0.00  19:  0.00  20:  0.00  21:  0.00  22:  0.00  23:  0.00  24:  0.00
  25:  0.00  26:  0.00  27:  0.00  28:  0.00  29:  0.00  30:  0.00  31:  0.00  32:  0.00
  33:  0.00  34:  0.00  35:  0.00  36:  0.00  37:  0.00  38:  0.00  39:  0.00  40:  0.00
  41:  0.00  42:  0.00  43:  0.00  44:  0.00  45:  0.00  46:  0.00  47:  0.00  48:  0.00
  49:  0.00  50:  0.00  51:  0.00  52:  0.00  53:  0.00  54:  0.00  55:  0.00  56:  0.00
  57:  0.00  58:  0.00  59:  0.00  60:  0.00  61:  0.00  62:  0.00  63:  0.00  64:  0.00
  65:  0.00  66:  0.00  67:  0.00  68:  0.00  69:  0.00  70:  0.00  71:  0.00  72:  0.00
  73:  0.00  74:  0.00  75:  0.00  76:  0.00  77:  0.00  78:  0.00
 output can be read by thermo (or use thermo option).
 writing <g98.out> molden fake output.
 recommended (thermochemical) frequency scaling factor: 1.0
           -------------------------------------------------
          |             Thermodynamic Functions             |
           -------------------------------------------------

Molecule has no symmetry elements
It seems to be the C1 point group
c1  symmetry found (for desy threshold:  0.10E+00) used in thermo

          ...................................................
          :                      SETUP                      :
          :.................................................:
          :  # frequencies                          72      :
          :  # imaginary freq.                       0      :
          :  linear?                             false      :
          :  only rotor calc.                    false      :
          :  symmetry                               c1      :
          :  rotational number                       1      :
          :  scaling factor                  1.0000000      :
          :  rotor cutoff                   50.0000000 cm⁻¹ :
          :  imag. cutoff                  -20.0000000 cm⁻¹ :
          :.................................................:

    mode    ω/cm⁻¹     T·S(HO)/kcal·mol⁻¹    T·S(FR)/kcal·mol⁻¹   T·S(vib)
   ------------------------------------------------------------------------
       1     24.77    -1.85138 (  5.68%)    -1.26432 ( 94.32%)    -1.29767
       2     64.73    -1.28433 ( 73.74%)    -0.97996 ( 26.26%)    -1.20440
       3     85.47    -1.12137 ( 89.52%)    -0.89762 ( 10.48%)    -1.09792
       4    113.47    -0.95666 ( 96.37%)    -0.81370 (  3.63%)    -0.95146
       5    161.57    -0.75472 ( 99.09%)    -0.70904 (  0.91%)    -0.75431
       6    170.53    -0.72439 ( 99.27%)    -0.69305 (  0.73%)    -0.72416
       7    201.30    -0.63243 ( 99.62%)    -0.64391 (  0.38%)    -0.63247
       8    222.76    -0.57738 ( 99.75%)    -0.61391 (  0.25%)    -0.57747
       9    248.47    -0.51920 ( 99.84%)    -0.58155 (  0.16%)    -0.51930
      10    262.54    -0.49040 ( 99.87%)    -0.56524 (  0.13%)    -0.49050
   ------------------------------------------------------------------------

   temp. (K)  partition function   enthalpy   heat capacity  entropy
                                   cal/mol     cal/K/mol   cal/K/mol   J/K/mol
 298.15  VIB  0.143E+05             6118.854     39.485     37.319
         ROT  0.115E+07              888.752      2.981     30.722
         INT  0.165E+11             7007.606     42.466     68.041
         TR   0.207E+28             1481.254      4.968     41.214
         TOT                        8488.8602    47.4337   109.2542   457.1196

       T/K    H(0)-H(T)+PV         H(T)/Eh          T*S/Eh         G(T)/Eh
   ------------------------------------------------------------------------
    298.15    0.135279E-01    0.232468E+00    0.519102E-01    0.180558E+00
   ------------------------------------------------------------------------

         :::::::::::::::::::::::::::::::::::::::::::::::::::::
         ::                  THERMODYNAMIC                  ::
         :::::::::::::::::::::::::::::::::::::::::::::::::::::
         :: total free energy         -31.375107488935 Eh   ::
         ::.................................................::
         :: total energy              -31.555665620059 Eh   ::
         :: zero point energy           0.218940467965 Eh   ::
         :: G(RRHO) w/o ZPVE           -0.038382336841 Eh   ::
         :: G(RRHO) contrib.            0.180558131123 Eh   ::
         :::::::::::::::::::::::::::::::::::::::::::::::::::::

optimized geometry written to: xtbopt.xyz


           -------------------------------------------------
          | TOTAL ENERGY              -31.555665620059 Eh   |
          | TOTAL ENTHALPY            -31.323197292207 Eh   |
          | TOTAL FREE ENERGY         -31.375107488935 Eh   |
          | GRADIENT NORM               0.000042917772 Eh/α |
          | HOMO-LUMO GAP               3.647817907509 eV   |
           -------------------------------------------------

------------------------------------------------------------------------
 * finished run on 2025/07/14 at 11:26:20.908     
------------------------------------------------------------------------
 total:
 * wall-time:     0 d,  0 h,  0 min,  8.658 sec
 *  cpu-time:     0 d,  0 h,  1 min, 30.890 sec
 * ratio c/w:    10.498 speedup
 SCF:
 * wall-time:     0 d,  0 h,  0 min,  0.091 sec
 *  cpu-time:     0 d,  0 h,  0 min,  1.085 sec
 * ratio c/w:    11.929 speedup
 ANC optimizer:
 * wall-time:     0 d,  0 h,  0 min,  5.319 sec
 *  cpu-time:     0 d,  0 h,  1 min,  3.616 sec
 * ratio c/w:    11.961 speedup
 analytical hessian:
 * wall-time:     0 d,  0 h,  0 min,  3.238 sec
 *  cpu-time:     0 d,  0 h,  0 min, 26.093 sec
 * ratio c/w:     8.057 speedup

