      -----------------------------------------------------------      
     |                   =====================                   |     
     |                           x T B                           |     
     |                   =====================                   |     
     |                         S. Grimme                         |     
     |          Mulliken Center for Theoretical Chemistry        |     
     |                    University of Bonn                     |     
      -----------------------------------------------------------      

   * xtb version 6.7.0 (08769fc) compiled by 'albert@albert-system' on 2024-03-04

   xtb is free software: you can redistribute it and/or modify it under
   the terms of the GNU Lesser General Public License as published by
   the Free Software Foundation, either version 3 of the License, or
   (at your option) any later version.
   
   xtb is distributed in the hope that it will be useful,
   but WITHOUT ANY WARRANTY; without even the implied warranty of
   MERCHANTABILITY or FITNESS FOR A PARTICULAR PURPOSE.  See the
   GNU Lesser General Public License for more details.
   
   Cite this work as:
   * C. Bannwarth, E. Caldeweyher, S. Ehlert, A. Hansen, P. Pracht,
     J. Seibert, S. Spicher, S. Grimme, WIREs Comput. Mol. Sci., 2020, 11,
     e01493. DOI: 10.1002/wcms.1493
   
   for GFN2-xTB:
   * C. Bannwarth, S. Ehlert and S. Grimme., J. Chem. Theory Comput., 2019,
     15, 1652-1671. DOI: 10.1021/acs.jctc.8b01176
   for GFN1-xTB:
   * S. Grimme, C. Bannwarth, P. Shushkov, J. Chem. Theory Comput., 2017,
     13, 1989-2009. DOI: 10.1021/acs.jctc.7b00118
   for GFN0-xTB:
   * P. Pracht, E. Caldeweyher, S. Ehlert, S. Grimme, ChemRxiv, 2019, preprint.
     DOI: 10.26434/chemrxiv.8326202.v1
   for GFN-FF:
   * S. Spicher and S. Grimme, Angew. Chem. Int. Ed., 2020, 59, 15665-15673.
     DOI: 10.1002/anie.202004239
   
   for ALPB and GBSA implicit solvation:
   * S. Ehlert, M. Stahn, S. Spicher, S. Grimme, J. Chem. Theory Comput.,
     2021, 17, 4250-4261. DOI: 10.1021/acs.jctc.1c00471
   
   for ddCOSMO and CPCM-X implicit solvation:
   * M. Stahn, S. Ehlert, S. Grimme, J. Phys. Chem. A,
     2023, XX, XXXX-XXXX. DOI: 10.1021/acs.jpca.3c04382
   
   for DFT-D4:
   * E. Caldeweyher, C. Bannwarth and S. Grimme, J. Chem. Phys., 2017,
     147, 034112. DOI: 10.1063/1.4993215
   * E. Caldeweyher, S. Ehlert, A. Hansen, H. Neugebauer, S. Spicher,
     C. Bannwarth and S. Grimme, J. Chem. Phys., 2019, 150, 154122.
     DOI: 10.1063/1.5090222
   * E. Caldeweyher, J.-M. Mewes, S. Ehlert and S. Grimme, Phys. Chem. Chem. Phys.
     2020, 22, 8499-8512. DOI: 10.1039/D0CP00502A
   
   for sTDA-xTB:
   * S. Grimme and C. Bannwarth, J. Chem. Phys., 2016, 145, 054103.
     DOI: 10.1063/1.4959605
   
   in the mass-spec context:
   * V. Asgeirsson, C. Bauer and S. Grimme, Chem. Sci., 2017, 8, 4879.
     DOI: 10.1039/c7sc00601b
   * J. Koopman and S. Grimme, ACS Omega 2019, 4, 12, 15120-15133.
     DOI: 10.1021/acsomega.9b02011
   
   for metadynamics refer to:
   * S. Grimme, J. Chem. Theory Comput., 2019, 155, 2847-2862
     DOI: 10.1021/acs.jctc.9b00143
   
   for SPH calculations refer to:
   * S. Spicher and S. Grimme, J. Chem. Theory Comput., 2021, 17, 1701-1714
     DOI: 10.1021/acs.jctc.0c01306
   
   for ONIOM refer to:
   * C. Plett, A. Katbashev, S. Ehlert, S. Grimme, M. Bursch,
     Phys. Chem. Chem. Phys., 2023, 25, 17860-17868. DOI: 10.1039/D3CP02178E
   
   for DIPRO refer to:
   * J. Kohn, N. Gildemeister, S. Grimme, D. Fazzi, A. Hansen,
     J. Chem. Phys., 2023, just accepted.
   
   for PTB refer to:
   * S. Grimme, M. Mueller, A. Hansen, J. Chem. Phys., 2023, 158, 124111.
     DOI: 10.1063/5.0137838
   
   with help from (in alphabetical order)
   P. Atkinson, C. Bannwarth, F. Bohle, G. Brandenburg, E. Caldeweyher
   M. Checinski, S. Dohm, S. Ehlert, S. Ehrlich, I. Gerasimov, C. Hölzer
   A. Katbashev, J. Kohn, J. Koopman, C. Lavigne, S. Lehtola, F. März, M. Müller,
   F. Musil, H. Neugebauer, J. Pisarek, C. Plett, P. Pracht, F. Pultar,
   J. Seibert, P. Shushkov, S. Spicher, M. Stahn, M. Steiner, T. Strunk,
   J. Stückrath, T. Rose, and J. Unsleber
   
 * started run on 2025/07/14 at 11:32:59.777     
   ID    Z sym.   atoms
    1   15 P      1
    2    6 C      2, 5, 9-14, 20, 23
    3    1 H      3, 4, 6-8, 15-19, 21, 22, 24-26

           -------------------------------------------------
          |                Calculation Setup                |
           -------------------------------------------------

          program call               : /home/minenky/programs/xtb/xtb-dist/bin/xtb m1_00_PEt2Ph-PBE0-D3-TZ-uniMM_44.xyz --charge 0 --T --ohess extreme --cycles 5000 --acc 0.01 --iterations 5000
          coordinate file            : m1_00_PEt2Ph-PBE0-D3-TZ-uniMM_44.xyz
          omp threads                :                    12

########################################################################
[WARNING] Please study the warnings concerning your input carefully
-1- prog_main_parseArguments: Unknown option '--T' provided
########################################################################

           -------------------------------------------------
          |                 G F N 2 - x T B                 |
           -------------------------------------------------

        Reference                      10.1021/acs.jctc.8b01176
      * Hamiltonian:
        H0-scaling (s, p, d)           1.850000    2.230000    2.230000
        zeta-weighting                 0.500000
      * Dispersion:
        s8                             2.700000
        a1                             0.520000
        a2                             5.000000
        s9                             5.000000
      * Repulsion:
        kExp                           1.500000    1.000000
        rExp                           1.000000
      * Coulomb:
        alpha                          2.000000
        third order                    shell-resolved
        anisotropic                    true
        a3                             3.000000
        a5                             4.000000
        cn-shift                       1.200000
        cn-exp                         4.000000
        max-rad                        5.000000


          ...................................................
          :                      SETUP                      :
          :.................................................:
          :  # basis functions                  65          :
          :  # atomic orbitals                  64          :
          :  # shells                           38          :
          :  # electrons                        60          :
          :  max. iterations                  5000          :
          :  Hamiltonian                  GFN2-xTB          :
          :  restarted?                      false          :
          :  GBSA solvation                  false          :
          :  PC potential                    false          :
          :  electronic temp.          300.0000000     K    :
          :  accuracy                    0.0100000          :
          :  -> integral cutoff          0.4500000E+02      :
          :  -> integral neglect         0.1000000E-09      :
          :  -> SCF convergence          0.1000000E-07 Eh   :
          :  -> wf. convergence          0.1000000E-05 e    :
          :  Broyden damping             0.4000000          :
          :  net charge                          0          :
          :  unpaired electrons                  0          :
          ...................................................

 iter      E             dE          RMSdq      gap      omega  full diag
   1    -32.0081256 -0.320081E+02  0.385E+00    3.97       0.0  T
   2    -32.0523379 -0.442124E-01  0.232E+00    3.42       1.0  T
   3    -32.0518703  0.467618E-03  0.904E-01    3.11       1.0  T
   4    -32.0529023 -0.103198E-02  0.294E-01    3.14       1.0  T
   5    -32.0545255 -0.162322E-02  0.115E-01    3.18       1.0  T
   6    -32.0547153 -0.189775E-03  0.437E-02    3.17       1.0  T
   7    -32.0547304 -0.151006E-04  0.174E-02    3.18       1.1  T
   8    -32.0547315 -0.106927E-05  0.688E-03    3.18       2.9  T
   9    -32.0547321 -0.592384E-06  0.142E-03    3.18      13.8  T
  10    -32.0547321 -0.282396E-07  0.636E-04    3.18      30.8  T
  11    -32.0547321 -0.759798E-09  0.307E-04    3.18      63.9  T
  12    -32.0547321 -0.757609E-09  0.484E-05    3.18     405.5  T
  13    -32.0547321 -0.337508E-11  0.186E-05    3.18    1052.4  T
  14    -32.0547321 -0.902389E-12  0.938E-06    3.18    2090.1  T
  15    -32.0547321 -0.866862E-12  0.262E-06    3.18    7496.7  T

   *** convergence criteria satisfied after 15 iterations ***

         #    Occupation            Energy/Eh            Energy/eV
      -------------------------------------------------------------
         1        2.0000           -0.6598281             -17.9548
       ...           ...                  ...                  ...
        24        2.0000           -0.4399452             -11.9715
        25        2.0000           -0.4244684             -11.5504
        26        2.0000           -0.4218927             -11.4803
        27        2.0000           -0.4080299             -11.1031
        28        2.0000           -0.4023736             -10.9491
        29        2.0000           -0.3991546             -10.8615
        30        2.0000           -0.3525550              -9.5935 (HOMO)
        31                         -0.2356963              -6.4136 (LUMO)
        32                         -0.2243624              -6.1052
        33                         -0.1521022              -4.1389
        34                         -0.1372518              -3.7348
        35                         -0.0900092              -2.4493
       ...                                ...                  ...
        64                          0.7826859              21.2980
      -------------------------------------------------------------
                  HL-Gap            0.1168587 Eh            3.1799 eV
             Fermi-level           -0.2941257 Eh           -8.0036 eV

 SCC (total)                   0 d,  0 h,  0 min,  0.088 sec
 SCC setup                      ...        0 min,  0.000 sec (  0.142%)
 Dispersion                     ...        0 min,  0.000 sec (  0.140%)
 classical contributions        ...        0 min,  0.000 sec (  0.011%)
 integral evaluation            ...        0 min,  0.002 sec (  2.344%)
 iterations                     ...        0 min,  0.084 sec ( 95.261%)
 molecular gradient             ...        0 min,  0.002 sec (  1.985%)
 printout                       ...        0 min,  0.000 sec (  0.097%)

         :::::::::::::::::::::::::::::::::::::::::::::::::::::
         ::                     SUMMARY                     ::
         :::::::::::::::::::::::::::::::::::::::::::::::::::::
         :: total energy             -31.539813757555 Eh    ::
         :: gradient norm              0.053255958019 Eh/a0 ::
         :: HOMO-LUMO gap              3.179888329084 eV    ::
         ::.................................................::
         :: SCC energy               -32.054554784164 Eh    ::
         :: -> isotropic ES            0.004215865384 Eh    ::
         :: -> anisotropic ES          0.006165078603 Eh    ::
         :: -> anisotropic XC          0.022545318927 Eh    ::
         :: -> dispersion             -0.024340387408 Eh    ::
         :: repulsion energy           0.514741026609 Eh    ::
         :: add. restraining           0.000000000000 Eh    ::
         :: total charge               0.000000000000 e     ::
         :::::::::::::::::::::::::::::::::::::::::::::::::::::

      ----------------------------------------------------------- 
     |                   =====================                   |
     |                        A N C O P T                        |
     |                   =====================                   |
     |               Approximate Normal Coordinate               |
     |                Rational Function Optimizer                |
      ----------------------------------------------------------- 
      ----------------------------------------------------------- 
     |                   =====================                   |
     |                        A N C O P T                        |
     |                   =====================                   |
     |               Approximate Normal Coordinate               |
     |                Rational Function Optimizer                |
      ----------------------------------------------------------- 

          ...................................................
          :                      SETUP                      :
          :.................................................:
          :   optimization level           extreme          :
          :   max. optcycles                  5000          :
          :   ANC micro-cycles                  20          :
          :   degrees of freedom                72          :
          :.................................................:
          :   RF solver                   davidson          :
          :   write xtbopt.log                true          :
          :   linear?                        false          :
          :   energy convergence         0.5000000E-07 Eh   :
          :   grad. convergence          0.5000000E-04 Eh/α :
          :   maxmium RF displ.          1.0000000          :
          :   Hlow (freq-cutoff)         0.1000000E-01      :
          :   Hmax (freq-cutoff)         5.0000000          :
          :   S6 in model hess.         20.0000000          :
          ...................................................

generating ANC from model Hessian ...
Using Lindh-Hessian (1995)
 Shifting diagonal of input Hessian by   1.313813456222295E-002
 Lowest  eigenvalues of input Hessian
    0.010000    0.000000    0.000000    0.000000    0.000000    0.000000
    0.000000    0.014156    0.014446    0.014827    0.015119    0.016597
    0.018044    0.021862    0.022316    0.023762    0.025964    0.026823
 Highest eigenvalues
    1.350884    1.538434    1.565978    1.867552    1.969536    1.989708
 

........................................................................
.............................. CYCLE    1 ..............................
........................................................................

 iter      E             dE          RMSdq      gap      omega  full diag
   1    -32.0547321 -0.320547E+02  0.110E-06    3.18       0.0  T
   2    -32.0547321 -0.639488E-13  0.664E-07    3.18   29546.4  T
   3    -32.0547321  0.213163E-13  0.428E-07    3.18   45836.3  T
     SCC iter.                  ...        0 min,  0.075 sec
     gradient                   ...        0 min,  0.002 sec
 * total energy  :   -31.5398138 Eh     change       -0.1065814E-12 Eh
   gradient norm :     0.0532560 Eh/α   predicted     0.0000000E+00 (-100.00%)
   displ. norm   :     0.5048418 α      lambda       -0.1372838E-01
   maximum displ.:     0.3944001 α      in ANC's #1, #13, #7, ...

........................................................................
.............................. CYCLE    2 ..............................
........................................................................

 iter      E             dE          RMSdq      gap      omega  full diag
   1    -32.0631122 -0.320631E+02  0.490E-01    3.46       0.0  T
   2    -32.0634172 -0.305053E-03  0.231E-01    3.52       1.0  T
   3    -32.0634335 -0.162874E-04  0.825E-02    3.56       1.0  T
   4    -32.0634310  0.247834E-05  0.444E-02    3.56       1.0  T
   5    -32.0634614 -0.303246E-04  0.950E-03    3.56       2.1  T
   6    -32.0634625 -0.114270E-05  0.390E-03    3.56       5.0  T
   7    -32.0634625 -0.451558E-08  0.171E-03    3.56      11.5  T
   8    -32.0634625 -0.305435E-07  0.502E-04    3.56      39.1  T
   9    -32.0634625 -0.291976E-08  0.163E-04    3.56     120.5  T
  10    -32.0634625 -0.255454E-09  0.774E-05    3.56     253.4  T
  11    -32.0634625 -0.259064E-10  0.257E-05    3.56     763.4  T
  12    -32.0634625 -0.192557E-11  0.858E-06    3.56    2285.2  T
  13    -32.0634625  0.710543E-14  0.396E-06    3.56    4954.7  T
     SCC iter.                  ...        0 min,  0.079 sec
     gradient                   ...        0 min,  0.002 sec
 * total energy  :   -31.5474868 Eh     change       -0.7672999E-02 Eh
   gradient norm :     0.0158323 Eh/α   predicted    -0.8613729E-02 (  12.26%)
   displ. norm   :     0.3418678 α      lambda       -0.2527880E-02
   maximum displ.:     0.2331406 α      in ANC's #1, #3, #10, ...

........................................................................
.............................. CYCLE    3 ..............................
........................................................................

 iter      E             dE          RMSdq      gap      omega  full diag
   1    -32.0675819 -0.320676E+02  0.142E-01    3.55       0.0  T
   2    -32.0675855 -0.353959E-05  0.821E-02    3.54       1.0  T
   3    -32.0675836  0.186939E-05  0.135E-02    3.54       1.5  T
   4    -32.0675861 -0.244693E-05  0.384E-03    3.54       5.1  T
   5    -32.0675863 -0.227361E-06  0.165E-03    3.54      11.9  T
   6    -32.0675863 -0.108089E-07  0.604E-04    3.54      32.5  T
   7    -32.0675863 -0.118786E-08  0.198E-04    3.54      98.9  T
   8    -32.0675863 -0.135998E-09  0.840E-05    3.54     233.5  T
   9    -32.0675863 -0.465334E-10  0.400E-05    3.54     490.0  T
  10    -32.0675863 -0.142322E-10  0.168E-05    3.54    1168.6  T
  11    -32.0675863 -0.203215E-11  0.655E-06    3.54    2994.3  T
  12    -32.0675863 -0.227374E-12  0.241E-06    3.54    8142.1  T
     SCC iter.                  ...        0 min,  0.075 sec
     gradient                   ...        0 min,  0.002 sec
 * total energy  :   -31.5493643 Eh     change       -0.1877549E-02 Eh
   gradient norm :     0.0071324 Eh/α   predicted    -0.1411661E-02 ( -24.81%)
   displ. norm   :     0.4302247 α      lambda       -0.1740479E-02
   maximum displ.:     0.2513252 α      in ANC's #1, #3, #7, ...

........................................................................
.............................. CYCLE    4 ..............................
........................................................................

 iter      E             dE          RMSdq      gap      omega  full diag
   1    -32.0691823 -0.320692E+02  0.120E-01    3.55       0.0  T
   2    -32.0691865 -0.417886E-05  0.711E-02    3.55       1.0  T
   3    -32.0691837  0.281239E-05  0.149E-02    3.55       1.3  T
   4    -32.0691871 -0.336014E-05  0.549E-03    3.55       3.6  T
   5    -32.0691875 -0.454003E-06  0.151E-03    3.55      13.0  T
   6    -32.0691875 -0.238496E-07  0.702E-04    3.55      28.0  T
   7    -32.0691875 -0.117457E-08  0.305E-04    3.55      64.3  T
   8    -32.0691875 -0.465569E-09  0.116E-04    3.55     169.8  T
   9    -32.0691875 -0.160611E-09  0.430E-05    3.55     456.2  T
  10    -32.0691875 -0.765255E-11  0.219E-05    3.55     895.5  T
  11    -32.0691875 -0.292033E-11  0.765E-06    3.55    2563.6  T
  12    -32.0691875 -0.149214E-12  0.214E-06    3.55    9184.5  T
     SCC iter.                  ...        0 min,  0.077 sec
     gradient                   ...        0 min,  0.002 sec
 * total energy  :   -31.5506139 Eh     change       -0.1249616E-02 Eh
   gradient norm :     0.0062136 Eh/α   predicted    -0.1031322E-02 ( -17.47%)
   displ. norm   :     0.4173736 α      lambda       -0.9688265E-03
   maximum displ.:     0.2319226 α      in ANC's #1, #3, #7, ...

........................................................................
.............................. CYCLE    5 ..............................
........................................................................

 iter      E             dE          RMSdq      gap      omega  full diag
   1    -32.0690226 -0.320690E+02  0.994E-02    3.54       0.0  T
   2    -32.0690248 -0.212747E-05  0.575E-02    3.54       1.0  T
   3    -32.0690228  0.198626E-05  0.114E-02    3.54       1.7  T
   4    -32.0690252 -0.245856E-05  0.347E-03    3.54       5.7  T
   5    -32.0690254 -0.148656E-06  0.133E-03    3.54      14.7  T
   6    -32.0690254 -0.906007E-08  0.658E-04    3.54      29.8  T
   7    -32.0690254 -0.887411E-09  0.160E-04    3.54     122.7  T
   8    -32.0690254 -0.180847E-09  0.729E-05    3.54     269.0  T
   9    -32.0690254 -0.141540E-10  0.331E-05    3.54     592.6  T
  10    -32.0690254 -0.832756E-11  0.157E-05    3.54    1248.1  T
  11    -32.0690254 -0.169820E-11  0.560E-06    3.54    3501.1  T
  12    -32.0690254 -0.142109E-13  0.213E-06    3.54    9208.0  T
     SCC iter.                  ...        0 min,  0.076 sec
     gradient                   ...        0 min,  0.002 sec
 * total energy  :   -31.5513383 Eh     change       -0.7243475E-03 Eh
   gradient norm :     0.0067946 Eh/α   predicted    -0.5687987E-03 ( -21.47%)
   displ. norm   :     0.4337571 α      lambda       -0.7525031E-03
   maximum displ.:     0.2308568 α      in ANC's #3, #1, #7, ...

........................................................................
.............................. CYCLE    6 ..............................
........................................................................

 iter      E             dE          RMSdq      gap      omega  full diag
   1    -32.0687417 -0.320687E+02  0.113E-01    3.54       0.0  T
   2    -32.0687441 -0.238952E-05  0.651E-02    3.55       1.0  T
   3    -32.0687423  0.172092E-05  0.119E-02    3.55       1.6  T
   4    -32.0687445 -0.220677E-05  0.336E-03    3.55       5.8  T
   5    -32.0687447 -0.109251E-06  0.146E-03    3.55      13.4  T
   6    -32.0687447 -0.227792E-07  0.588E-04    3.55      33.3  T
   7    -32.0687447 -0.558728E-09  0.174E-04    3.55     112.8  T
   8    -32.0687447 -0.267470E-09  0.801E-05    3.55     244.9  T
   9    -32.0687447 -0.350155E-10  0.334E-05    3.55     588.0  T
  10    -32.0687447 -0.910205E-11  0.160E-05    3.55    1226.3  T
  11    -32.0687447 -0.165556E-11  0.519E-06    3.55    3780.9  T
  12    -32.0687447 -0.852651E-13  0.183E-06    3.55   10704.8  T
     SCC iter.                  ...        0 min,  0.076 sec
     gradient                   ...        0 min,  0.003 sec
 * total energy  :   -31.5519130 Eh     change       -0.5747659E-03 Eh
   gradient norm :     0.0067982 Eh/α   predicted    -0.4470421E-03 ( -22.22%)
   displ. norm   :     0.4387769 α      lambda       -0.6839799E-03
   maximum displ.:     0.2256300 α      in ANC's #3, #1, #7, ...

........................................................................
.............................. CYCLE    7 ..............................
........................................................................

 iter      E             dE          RMSdq      gap      omega  full diag
   1    -32.0690799 -0.320691E+02  0.120E-01    3.55       0.0  T
   2    -32.0690827 -0.278237E-05  0.704E-02    3.55       1.0  T
   3    -32.0690817  0.104722E-05  0.117E-02    3.55       1.7  T
   4    -32.0690832 -0.153241E-05  0.283E-03    3.55       6.9  T
   5    -32.0690832 -0.428150E-07  0.155E-03    3.55      12.7  T
   6    -32.0690833 -0.251747E-07  0.560E-04    3.55      35.0  T
   7    -32.0690833 -0.695238E-09  0.143E-04    3.55     137.3  T
   8    -32.0690833 -0.175945E-09  0.675E-05    3.55     290.5  T
   9    -32.0690833 -0.252953E-10  0.258E-05    3.55     759.5  T
  10    -32.0690833 -0.655831E-11  0.108E-05    3.55    1813.0  T
  11    -32.0690833 -0.945022E-12  0.379E-06    3.55    5168.5  T
  12    -32.0690833 -0.142109E-13  0.135E-06    3.55   14531.1  T
     SCC iter.                  ...        0 min,  0.077 sec
     gradient                   ...        0 min,  0.002 sec
 * total energy  :   -31.5524358 Eh     change       -0.5228109E-03 Eh
   gradient norm :     0.0078402 Eh/α   predicted    -0.4078322E-03 ( -21.99%)
   displ. norm   :     0.4089139 α      lambda       -0.6527008E-03
   maximum displ.:     0.2204050 α      in ANC's #6, #3, #4, ...

........................................................................
.............................. CYCLE    8 ..............................
........................................................................

 iter      E             dE          RMSdq      gap      omega  full diag
   1    -32.0707320 -0.320707E+02  0.119E-01    3.56       0.0  T
   2    -32.0707338 -0.183920E-05  0.709E-02    3.57       1.0  T
   3    -32.0707333  0.522652E-06  0.888E-03    3.57       2.2  T
   4    -32.0707342 -0.892713E-06  0.232E-03    3.57       8.4  T
   5    -32.0707342 -0.627015E-08  0.126E-03    3.57      15.6  T
   6    -32.0707342 -0.209591E-07  0.323E-04    3.57      60.8  T
   7    -32.0707342 -0.482679E-09  0.100E-04    3.57     195.3  T
   8    -32.0707342 -0.523812E-10  0.498E-05    3.57     393.5  T
   9    -32.0707342 -0.236042E-10  0.194E-05    3.57    1011.3  T
  10    -32.0707342 -0.173372E-11  0.554E-06    3.57    3540.3  T
  11    -32.0707342 -0.270006E-12  0.184E-06    3.57   10670.9  T
     SCC iter.                  ...        0 min,  0.076 sec
     gradient                   ...        0 min,  0.002 sec
 * total energy  :   -31.5529345 Eh     change       -0.4986262E-03 Eh
   gradient norm :     0.0093875 Eh/α   predicted    -0.3809199E-03 ( -23.61%)
   displ. norm   :     0.3882524 α      lambda       -0.6028222E-03
   maximum displ.:     0.2405729 α      in ANC's #6, #4, #3, ...

........................................................................
.............................. CYCLE    9 ..............................
........................................................................

 iter      E             dE          RMSdq      gap      omega  full diag
   1    -32.0722937 -0.320723E+02  0.109E-01    3.58       0.0  T
   2    -32.0722947 -0.947932E-06  0.653E-02    3.58       1.0  T
   3    -32.0722945  0.106479E-06  0.592E-03    3.58       3.3  T
   4    -32.0722949 -0.363876E-06  0.194E-03    3.58      10.1  T
   5    -32.0722949 -0.190293E-08  0.856E-04    3.58      22.9  T
   6    -32.0722949 -0.483890E-08  0.269E-04    3.58      72.8  T
   7    -32.0722949 -0.449212E-09  0.943E-05    3.58     207.9  T
   8    -32.0722949 -0.887255E-10  0.368E-05    3.58     532.6  T
   9    -32.0722949 -0.740386E-11  0.135E-05    3.58    1447.7  T
  10    -32.0722949 -0.945022E-12  0.503E-06    3.58    3895.8  T
  11    -32.0722949 -0.213163E-12  0.220E-06    3.58    8897.7  T
     SCC iter.                  ...        0 min,  0.076 sec
     gradient                   ...        0 min,  0.002 sec
 * total energy  :   -31.5534014 Eh     change       -0.4669076E-03 Eh
   gradient norm :     0.0096333 Eh/α   predicted    -0.3468465E-03 ( -25.71%)
   displ. norm   :     0.4122807 α      lambda       -0.5761705E-03
   maximum displ.:     0.2466108 α      in ANC's #6, #4, #1, ...

........................................................................
.............................. CYCLE   10 ..............................
........................................................................

 iter      E             dE          RMSdq      gap      omega  full diag
   1    -32.0725065 -0.320725E+02  0.106E-01    3.59       0.0  T
   2    -32.0725081 -0.155107E-05  0.621E-02    3.60       1.0  T
   3    -32.0725079  0.134493E-06  0.860E-03    3.60       2.3  T
   4    -32.0725083 -0.408476E-06  0.262E-03    3.60       7.5  T
   5    -32.0725084 -0.314419E-07  0.104E-03    3.60      18.9  T
   6    -32.0725084 -0.585035E-08  0.527E-04    3.60      37.2  T
   7    -32.0725084 -0.280222E-08  0.132E-04    3.60     148.9  T
   8    -32.0725084 -0.497238E-10  0.413E-05    3.60     475.1  T
   9    -32.0725084 -0.145022E-10  0.168E-05    3.60    1169.6  T
  10    -32.0725084 -0.205347E-11  0.571E-06    3.60    3436.4  T
  11    -32.0725084 -0.426326E-13  0.230E-06    3.60    8519.8  T
     SCC iter.                  ...        0 min,  0.076 sec
     gradient                   ...        0 min,  0.002 sec
 * total energy  :   -31.5538459 Eh     change       -0.4444859E-03 Eh
   gradient norm :     0.0082916 Eh/α   predicted    -0.3370544E-03 ( -24.17%)
   displ. norm   :     0.3634720 α      lambda       -0.5671208E-03
   maximum displ.:     0.1916260 α      in ANC's #6, #4, #1, ...

........................................................................
.............................. CYCLE   11 ..............................
........................................................................

 iter      E             dE          RMSdq      gap      omega  full diag
   1    -32.0758325 -0.320758E+02  0.964E-02    3.61       0.0  T
   2    -32.0758346 -0.206404E-05  0.545E-02    3.61       1.0  T
   3    -32.0758345  0.831544E-07  0.928E-03    3.61       2.1  T
   4    -32.0758348 -0.337477E-06  0.219E-03    3.61       9.0  T
   5    -32.0758349 -0.291121E-07  0.974E-04    3.61      20.1  T
   6    -32.0758349 -0.150564E-07  0.434E-04    3.61      45.1  T
   7    -32.0758349 -0.674405E-09  0.132E-04    3.61     148.0  T
   8    -32.0758349 -0.114930E-09  0.597E-05    3.61     328.7  T
   9    -32.0758349 -0.350653E-10  0.239E-05    3.61     820.0  T
  10    -32.0758349 -0.194689E-11  0.984E-06    3.61    1992.6  T
  11    -32.0758349 -0.994760E-12  0.404E-06    3.61    4857.8  T
     SCC iter.                  ...        0 min,  0.076 sec
     gradient                   ...        0 min,  0.002 sec
 * total energy  :   -31.5542142 Eh     change       -0.3683056E-03 Eh
   gradient norm :     0.0054903 Eh/α   predicted    -0.3210229E-03 ( -12.84%)
   displ. norm   :     0.6935586 α      lambda       -0.6846605E-03
   maximum displ.:     0.3566597 α      in ANC's #4, #6, #1, ...

........................................................................
.............................. CYCLE   12 ..............................
........................................................................

 iter      E             dE          RMSdq      gap      omega  full diag
   1    -32.0645633 -0.320646E+02  0.169E-01    3.62       0.0  T
   2    -32.0645878 -0.244342E-04  0.940E-02    3.63       1.0  T
   3    -32.0645880 -0.253523E-06  0.395E-02    3.63       1.0  T
   4    -32.0645908 -0.281252E-05  0.856E-03    3.63       2.3  T
   5    -32.0645909 -0.437300E-07  0.463E-03    3.63       4.2  T
   6    -32.0645910 -0.149087E-06  0.214E-03    3.63       9.2  T
   7    -32.0645911 -0.343322E-07  0.776E-04    3.63      25.3  T
   8    -32.0645911 -0.695124E-09  0.177E-04    3.63     110.9  T
   9    -32.0645911 -0.203514E-09  0.847E-05    3.63     231.5  T
  10    -32.0645911 -0.464695E-10  0.277E-05    3.63     708.1  T
  11    -32.0645911 -0.269296E-11  0.910E-06    3.63    2154.7  T
  12    -32.0645911 -0.476064E-12  0.225E-06    3.63    8709.0  T
     SCC iter.                  ...        0 min,  0.077 sec
     gradient                   ...        0 min,  0.002 sec
 * total energy  :   -31.5540555 Eh     change        0.1586669E-03 Eh
   gradient norm :     0.0204565 Eh/α   predicted    -0.5070055E-03 (-419.54%)
   displ. norm   :     0.2332363 α      lambda       -0.1197771E-02
   maximum displ.:     0.1528906 α      in ANC's #6, #4, #1, ...

........................................................................
.............................. CYCLE   13 ..............................
........................................................................

 iter      E             dE          RMSdq      gap      omega  full diag
   1    -32.0734308 -0.320734E+02  0.909E-02    3.62       0.0  T
   2    -32.0734421 -0.112710E-04  0.471E-02    3.62       1.0  T
   3    -32.0734426 -0.545495E-06  0.254E-02    3.62       1.0  T
   4    -32.0734434 -0.765984E-06  0.514E-03    3.62       3.8  T
   5    -32.0734434 -0.922063E-08  0.299E-03    3.62       6.6  T
   6    -32.0734434 -0.147302E-07  0.851E-04    3.62      23.0  T
   7    -32.0734434 -0.596970E-09  0.289E-04    3.62      68.0  T
   8    -32.0734434 -0.136551E-08  0.882E-05    3.62     222.4  T
   9    -32.0734434 -0.647304E-11  0.570E-05    3.62     344.2  T
  10    -32.0734434 -0.168683E-10  0.139E-05    3.62    1409.6  T
  11    -32.0734434 -0.117950E-11  0.481E-06    3.62    4076.7  T
  12    -32.0734434 -0.106581E-12  0.143E-06    3.62   13718.5  T
     SCC iter.                  ...        0 min,  0.076 sec
     gradient                   ...        0 min,  0.002 sec
 * total energy  :   -31.5546738 Eh     change       -0.6182907E-03 Eh
   gradient norm :     0.0059797 Eh/α   predicted    -0.6314685E-03 (   2.13%)
   displ. norm   :     0.1882963 α      lambda       -0.2402425E-03
   maximum displ.:     0.1043437 α      in ANC's #4, #1, #5, ...

........................................................................
.............................. CYCLE   14 ..............................
........................................................................

 iter      E             dE          RMSdq      gap      omega  full diag
   1    -32.0751768 -0.320752E+02  0.451E-02    3.62       0.0  T
   2    -32.0751771 -0.239745E-06  0.264E-02    3.62       1.0  T
   3    -32.0751769  0.213524E-06  0.338E-03    3.62       5.8  T
   4    -32.0751771 -0.239410E-06  0.177E-03    3.62      11.1  T
   5    -32.0751771 -0.509647E-07  0.436E-04    3.62      45.0  T
   6    -32.0751771 -0.382236E-09  0.242E-04    3.62      80.9  T
   7    -32.0751771 -0.169635E-09  0.676E-05    3.62     290.0  T
   8    -32.0751771 -0.468248E-10  0.206E-05    3.62     950.6  T
   9    -32.0751771 -0.230216E-11  0.917E-06    3.62    2139.4  T
  10    -32.0751771 -0.149214E-12  0.351E-06    3.62    5594.4  T
     SCC iter.                  ...        0 min,  0.075 sec
     gradient                   ...        0 min,  0.002 sec
 * total energy  :   -31.5548784 Eh     change       -0.2046447E-03 Eh
   gradient norm :     0.0051604 Eh/α   predicted    -0.1243950E-03 ( -39.21%)
   displ. norm   :     0.5958605 α      lambda       -0.5933011E-03
   maximum displ.:     0.3283207 α      in ANC's #4, #1, #6, ...

........................................................................
.............................. CYCLE   15 ..............................
........................................................................

 iter      E             dE          RMSdq      gap      omega  full diag
   1    -32.0738321 -0.320738E+02  0.125E-01    3.64       0.0  T
   2    -32.0738392 -0.709540E-05  0.727E-02    3.64       1.0  T
   3    -32.0738377  0.153857E-05  0.230E-02    3.64       1.0  T
   4    -32.0738402 -0.250668E-05  0.566E-03    3.64       3.5  T
   5    -32.0738404 -0.155253E-06  0.310E-03    3.64       6.3  T
   6    -32.0738406 -0.202054E-06  0.135E-03    3.64      14.5  T
   7    -32.0738406 -0.324036E-08  0.393E-04    3.64      49.9  T
   8    -32.0738406 -0.250786E-09  0.117E-04    3.64     168.0  T
   9    -32.0738406 -0.142265E-09  0.432E-05    3.64     454.4  T
  10    -32.0738406 -0.605382E-11  0.135E-05    3.64    1457.5  T
  11    -32.0738406 -0.660805E-12  0.417E-06    3.64    4700.6  T
  12    -32.0738406 -0.213163E-13  0.122E-06    3.64   16135.9  T
     SCC iter.                  ...        0 min,  0.076 sec
     gradient                   ...        0 min,  0.006 sec
 * total energy  :   -31.5552447 Eh     change       -0.3662373E-03 Eh
   gradient norm :     0.0078343 Eh/α   predicted    -0.4020077E-03 (   9.77%)
   displ. norm   :     0.2119575 α      lambda       -0.2366764E-03
   maximum displ.:     0.1063501 α      in ANC's #4, #6, #3, ...

........................................................................
.............................. CYCLE   16 ..............................
........................................................................

 iter      E             dE          RMSdq      gap      omega  full diag
   1    -32.0732117 -0.320732E+02  0.583E-02    3.64       0.0  T
   2    -32.0732128 -0.114022E-05  0.304E-02    3.64       1.0  T
   3    -32.0732128  0.201193E-07  0.100E-02    3.64       2.0  T
   4    -32.0732130 -0.196521E-06  0.170E-03    3.64      11.5  T
   5    -32.0732130 -0.743038E-08  0.710E-04    3.64      27.6  T
   6    -32.0732130  0.260428E-09  0.395E-04    3.64      49.6  T
   7    -32.0732130 -0.180088E-08  0.128E-04    3.64     153.1  T
   8    -32.0732130 -0.936922E-10  0.393E-05    3.64     499.2  T
   9    -32.0732130 -0.679279E-11  0.193E-05    3.64    1017.4  T
  10    -32.0732130 -0.287059E-11  0.549E-06    3.64    3571.0  T
  11    -32.0732130 -0.206057E-12  0.211E-06    3.64    9286.3  T
     SCC iter.                  ...        0 min,  0.081 sec
     gradient                   ...        0 min,  0.002 sec
 * total energy  :   -31.5553739 Eh     change       -0.1292656E-03 Eh
   gradient norm :     0.0076771 Eh/α   predicted    -0.1236555E-03 (  -4.34%)
   displ. norm   :     0.1296272 α      lambda       -0.2945686E-03
   maximum displ.:     0.0560696 α      in ANC's #5, #47, #6, ...

........................................................................
.............................. CYCLE   17 ..............................
........................................................................

 iter      E             dE          RMSdq      gap      omega  full diag
   1    -32.0772062 -0.320772E+02  0.537E-02    3.63       0.0  T
   2    -32.0772091 -0.295396E-05  0.293E-02    3.63       1.0  T
   3    -32.0772092 -0.401698E-07  0.116E-02    3.63       1.7  T
   4    -32.0772094 -0.236944E-06  0.231E-03    3.63       8.5  T
   5    -32.0772094 -0.452464E-08  0.130E-03    3.63      15.1  T
   6    -32.0772094 -0.520315E-08  0.500E-04    3.63      39.2  T
   7    -32.0772094 -0.362827E-08  0.183E-04    3.63     107.4  T
   8    -32.0772094 -0.111719E-09  0.519E-05    3.63     377.6  T
   9    -32.0772094 -0.209823E-10  0.286E-05    3.63     686.5  T
  10    -32.0772094 -0.562039E-11  0.131E-05    3.63    1494.5  T
  11    -32.0772094 -0.902389E-12  0.247E-06    3.63    7954.4  T
  12    -32.0772094 -0.639488E-13  0.107E-06    3.63   18403.8  T
     SCC iter.                  ...        0 min,  0.076 sec
     gradient                   ...        0 min,  0.002 sec
 * total energy  :   -31.5555006 Eh     change       -0.1266080E-03 Eh
   gradient norm :     0.0059488 Eh/α   predicted    -0.1497614E-03 (  18.29%)
   displ. norm   :     0.3848423 α      lambda       -0.2641762E-03
   maximum displ.:     0.1810577 α      in ANC's #6, #4, #5, ...

........................................................................
.............................. CYCLE   18 ..............................
........................................................................

 iter      E             dE          RMSdq      gap      omega  full diag
   1    -32.0742100 -0.320742E+02  0.883E-02    3.64       0.0  T
   2    -32.0742160 -0.591178E-05  0.524E-02    3.65       1.0  T
   3    -32.0742158  0.135615E-06  0.189E-02    3.65       1.0  T
   4    -32.0742167 -0.868906E-06  0.365E-03    3.65       5.4  T
   5    -32.0742167  0.244893E-08  0.239E-03    3.65       8.2  T
   6    -32.0742167 -0.383335E-07  0.105E-03    3.65      18.7  T
   7    -32.0742167 -0.808421E-08  0.328E-04    3.65      59.8  T
   8    -32.0742167 -0.179732E-09  0.729E-05    3.65     269.0  T
   9    -32.0742167 -0.382343E-10  0.371E-05    3.65     527.9  T
  10    -32.0742167 -0.464695E-11  0.144E-05    3.65    1362.8  T
  11    -32.0742167 -0.123634E-11  0.464E-06    3.65    4223.4  T
  12    -32.0742167 -0.426326E-13  0.130E-06    3.65   15131.0  T
     SCC iter.                  ...        0 min,  0.076 sec
     gradient                   ...        0 min,  0.002 sec
 * total energy  :   -31.5556080 Eh     change       -0.1074246E-03 Eh
   gradient norm :     0.0091559 Eh/α   predicted    -0.1516515E-03 (  41.17%)
   displ. norm   :     0.0625410 α      lambda       -0.1502795E-03
   maximum displ.:     0.0376024 α      in ANC's #4, #1, #3, ...

........................................................................
.............................. CYCLE   19 ..............................
........................................................................

 iter      E             dE          RMSdq      gap      omega  full diag
   1    -32.0760026 -0.320760E+02  0.287E-02    3.65       0.0  T
   2    -32.0760038 -0.114084E-05  0.144E-02    3.65       1.4  T
   3    -32.0760038 -0.487455E-07  0.797E-03    3.65       2.5  T
   4    -32.0760039 -0.946840E-07  0.109E-03    3.65      18.0  T
   5    -32.0760039 -0.293873E-08  0.679E-04    3.65      28.9  T
   6    -32.0760039 -0.122767E-08  0.283E-04    3.65      69.4  T
   7    -32.0760039 -0.908592E-09  0.775E-05    3.65     252.9  T
   8    -32.0760039 -0.146230E-10  0.339E-05    3.65     579.0  T
   9    -32.0760039 -0.688516E-11  0.110E-05    3.65    1783.1  T
  10    -32.0760039 -0.873968E-12  0.555E-06    3.65    3536.4  T
  11    -32.0760039 -0.234479E-12  0.118E-06    3.65   16686.7  T
     SCC iter.                  ...        0 min,  0.075 sec
     gradient                   ...        0 min,  0.002 sec
 * total energy  :   -31.5557101 Eh     change       -0.1021432E-03 Eh
   gradient norm :     0.0044212 Eh/α   predicted    -0.7543717E-04 ( -26.15%)
   displ. norm   :     0.2093561 α      lambda       -0.1454519E-03
   maximum displ.:     0.1150312 α      in ANC's #5, #6, #2, ...

........................................................................
.............................. CYCLE   20 ..............................
........................................................................

 iter      E             dE          RMSdq      gap      omega  full diag
   1    -32.0759082 -0.320759E+02  0.550E-02    3.65       0.0  T
   2    -32.0759087 -0.493727E-06  0.315E-02    3.65       1.0  T
   3    -32.0759085  0.131128E-06  0.442E-03    3.65       4.4  T
   4    -32.0759087 -0.180978E-06  0.163E-03    3.65      12.1  T
   5    -32.0759088 -0.391874E-07  0.815E-04    3.65      24.1  T
   6    -32.0759088 -0.792429E-08  0.273E-04    3.65      71.7  T
   7    -32.0759088  0.355840E-10  0.740E-05    3.65     264.9  T
   8    -32.0759088 -0.653060E-10  0.305E-05    3.65     642.4  T
   9    -32.0759088 -0.766676E-11  0.126E-05    3.65    1551.8  T
  10    -32.0759088 -0.923706E-12  0.355E-06    3.65    5528.6  T
  11    -32.0759088 -0.206057E-12  0.103E-06    3.65   19073.5  T
     SCC iter.                  ...        0 min,  0.075 sec
     gradient                   ...        0 min,  0.002 sec
 * total energy  :   -31.5558094 Eh     change       -0.9926565E-04 Eh
   gradient norm :     0.0038604 Eh/α   predicted    -0.7592078E-04 ( -23.52%)
   displ. norm   :     0.2307972 α      lambda       -0.1173060E-03
   maximum displ.:     0.1444974 α      in ANC's #5, #6, #2, ...
 * RMSD in coord.:     1.0400653 α      energy gain  -0.1599563E-01 Eh

generating ANC from model Hessian ...
Using Lindh-Hessian (1995)
 Shifting diagonal of input Hessian by   9.150863624637729E-003
 Lowest  eigenvalues of input Hessian
    0.000000    0.000000    0.000000    0.000000    0.000000    0.000000
    0.010000    0.010171    0.010712    0.010895    0.011355    0.012871
    0.015034    0.016841    0.018351    0.018710    0.022210    0.024216
 Highest eigenvalues
    1.363522    1.555277    1.571691    1.882045    1.988244    2.003077
 

........................................................................
.............................. CYCLE   21 ..............................
........................................................................

 iter      E             dE          RMSdq      gap      omega  full diag
   1    -32.0760086 -0.320760E+02  0.558E-02    3.65       0.0  T
   2    -32.0760088 -0.204902E-06  0.333E-02    3.65       1.0  T
   3    -32.0760085  0.294380E-06  0.446E-03    3.65       4.4  T
   4    -32.0760089 -0.382192E-06  0.116E-03    3.65      16.9  T
   5    -32.0760089 -0.439141E-08  0.695E-04    3.65      28.2  T
   6    -32.0760089 -0.333542E-08  0.139E-04    3.65     141.5  T
   7    -32.0760089 -0.341700E-10  0.495E-05    3.65     396.0  T
   8    -32.0760089 -0.946443E-11  0.186E-05    3.65    1054.7  T
   9    -32.0760089 -0.230926E-11  0.687E-06    3.65    2856.0  T
  10    -32.0760089 -0.426326E-12  0.236E-06    3.65    8310.2  T
     SCC iter.                  ...        0 min,  0.076 sec
     gradient                   ...        0 min,  0.002 sec
 * total energy  :   -31.5558918 Eh     change       -0.8236664E-04 Eh
   gradient norm :     0.0044678 Eh/α   predicted     0.0000000E+00 (-100.00%)
   displ. norm   :     0.0469741 α      lambda       -0.6209165E-04
   maximum displ.:     0.0245667 α      in ANC's #4, #3, #10, ...

........................................................................
.............................. CYCLE   22 ..............................
........................................................................

 iter      E             dE          RMSdq      gap      omega  full diag
   1    -32.0767057 -0.320767E+02  0.183E-02    3.65       0.0  T
   2    -32.0767059 -0.162282E-06  0.102E-02    3.65       1.9  T
   3    -32.0767059  0.486731E-08  0.227E-03    3.65       8.6  T
   4    -32.0767059 -0.185585E-07  0.886E-04    3.65      22.1  T
   5    -32.0767059 -0.728738E-08  0.308E-04    3.65      63.7  T
   6    -32.0767059 -0.373923E-09  0.177E-04    3.65     110.6  T
   7    -32.0767059 -0.316078E-09  0.506E-05    3.65     387.9  T
   8    -32.0767059 -0.873257E-11  0.185E-05    3.65    1058.5  T
   9    -32.0767059 -0.534328E-11  0.766E-06    3.65    2559.8  T
  10    -32.0767059 -0.255795E-12  0.198E-06    3.65    9917.5  T
     SCC iter.                  ...        0 min,  0.076 sec
     gradient                   ...        0 min,  0.002 sec
 * total energy  :   -31.5559404 Eh     change       -0.4864040E-04 Eh
   gradient norm :     0.0019254 Eh/α   predicted    -0.3118062E-04 ( -35.90%)
   displ. norm   :     0.1689829 α      lambda       -0.7657205E-04
   maximum displ.:     0.0905631 α      in ANC's #4, #3, #9, ...

........................................................................
.............................. CYCLE   23 ..............................
........................................................................

 iter      E             dE          RMSdq      gap      omega  full diag
   1    -32.0773180 -0.320773E+02  0.454E-02    3.64       0.0  T
   2    -32.0773186 -0.550360E-06  0.251E-02    3.64       1.0  T
   3    -32.0773185  0.109502E-06  0.545E-03    3.64       3.6  T
   4    -32.0773186 -0.145838E-06  0.198E-03    3.64       9.9  T
   5    -32.0773187 -0.522939E-07  0.713E-04    3.64      27.5  T
   6    -32.0773187 -0.227038E-08  0.357E-04    3.64      55.0  T
   7    -32.0773187 -0.897224E-09  0.737E-05    3.64     266.1  T
   8    -32.0773187 -0.612772E-10  0.324E-05    3.64     604.5  T
   9    -32.0773187 -0.109210E-10  0.123E-05    3.64    1589.3  T
  10    -32.0773187 -0.547118E-12  0.395E-06    3.64    4961.6  T
  11    -32.0773187 -0.149214E-12  0.171E-06    3.64   11473.5  T
     SCC iter.                  ...        0 min,  0.076 sec
     gradient                   ...        0 min,  0.002 sec
 * total energy  :   -31.5559964 Eh     change       -0.5604284E-04 Eh
   gradient norm :     0.0033367 Eh/α   predicted    -0.3877229E-04 ( -30.82%)
   displ. norm   :     0.0459067 α      lambda       -0.2269081E-04
   maximum displ.:     0.0273362 α      in ANC's #3, #4, #9, ...

........................................................................
.............................. CYCLE   24 ..............................
........................................................................

 iter      E             dE          RMSdq      gap      omega  full diag
   1    -32.0770030 -0.320770E+02  0.105E-02    3.64       0.0  T
   2    -32.0770031 -0.433163E-07  0.594E-03    3.64       3.3  T
   3    -32.0770031  0.642146E-08  0.132E-03    3.64      14.9  T
   4    -32.0770031 -0.787566E-08  0.581E-04    3.64      33.7  T
   5    -32.0770031 -0.555028E-08  0.213E-04    3.64      92.0  T
   6    -32.0770031 -0.525802E-09  0.699E-05    3.64     280.5  T
   7    -32.0770031 -0.127187E-10  0.249E-05    3.64     786.6  T
   8    -32.0770031 -0.299849E-11  0.894E-06    3.64    2193.8  T
   9    -32.0770031 -0.895284E-12  0.325E-06    3.64    6040.1  T
     SCC iter.                  ...        0 min,  0.075 sec
     gradient                   ...        0 min,  0.002 sec
 * total energy  :   -31.5560162 Eh     change       -0.1979250E-04 Eh
   gradient norm :     0.0023276 Eh/α   predicted    -0.1137005E-04 ( -42.55%)
   displ. norm   :     0.1254383 α      lambda       -0.4992933E-04
   maximum displ.:     0.0724171 α      in ANC's #3, #4, #9, ...

........................................................................
.............................. CYCLE   25 ..............................
........................................................................

 iter      E             dE          RMSdq      gap      omega  full diag
   1    -32.0763812 -0.320764E+02  0.262E-02    3.64       0.0  T
   2    -32.0763814 -0.218898E-06  0.152E-02    3.64       1.3  T
   3    -32.0763814  0.542275E-07  0.310E-03    3.64       6.3  T
   4    -32.0763814 -0.594857E-07  0.129E-03    3.64      15.2  T
   5    -32.0763815 -0.321425E-07  0.497E-04    3.64      39.5  T
   6    -32.0763815 -0.202887E-08  0.172E-04    3.64     114.0  T
   7    -32.0763815 -0.507399E-10  0.427E-05    3.64     459.3  T
   8    -32.0763815 -0.507328E-11  0.169E-05    3.64    1161.5  T
   9    -32.0763815 -0.363798E-11  0.663E-06    3.64    2960.2  T
  10    -32.0763815 -0.326850E-12  0.204E-06    3.64    9626.3  T
     SCC iter.                  ...        0 min,  0.075 sec
     gradient                   ...        0 min,  0.002 sec
 * total energy  :   -31.5560477 Eh     change       -0.3147001E-04 Eh
   gradient norm :     0.0013272 Eh/α   predicted    -0.2536599E-04 ( -19.40%)
   displ. norm   :     0.1020999 α      lambda       -0.1268645E-04
   maximum displ.:     0.0626953 α      in ANC's #3, #4, #5, ...

........................................................................
.............................. CYCLE   26 ..............................
........................................................................

 iter      E             dE          RMSdq      gap      omega  full diag
   1    -32.0762091 -0.320762E+02  0.215E-02    3.64       0.0  T
   2    -32.0762091 -0.781946E-07  0.125E-02    3.64       1.6  T
   3    -32.0762091  0.291959E-07  0.194E-03    3.64      10.1  T
   4    -32.0762091 -0.337480E-07  0.889E-04    3.64      22.1  T
   5    -32.0762092 -0.123531E-07  0.345E-04    3.64      56.9  T
   6    -32.0762092 -0.129702E-08  0.118E-04    3.64     165.8  T
   7    -32.0762092 -0.116671E-10  0.258E-05    3.64     759.1  T
   8    -32.0762092 -0.537170E-11  0.961E-06    3.64    2041.1  T
   9    -32.0762092 -0.738964E-12  0.315E-06    3.64    6223.9  T
     SCC iter.                  ...        0 min,  0.075 sec
     gradient                   ...        0 min,  0.002 sec
 * total energy  :   -31.5560604 Eh     change       -0.1271975E-04 Eh
   gradient norm :     0.0019272 Eh/α   predicted    -0.6373525E-05 ( -49.89%)
   displ. norm   :     0.0784763 α      lambda       -0.1236961E-04
   maximum displ.:     0.0489634 α      in ANC's #3, #5, #4, ...

........................................................................
.............................. CYCLE   27 ..............................
........................................................................

 iter      E             dE          RMSdq      gap      omega  full diag
   1    -32.0766676 -0.320767E+02  0.172E-02    3.64       0.0  T
   2    -32.0766677 -0.659467E-07  0.100E-02    3.64       2.0  T
   3    -32.0766677  0.105103E-07  0.133E-03    3.64      14.7  T
   4    -32.0766677 -0.126881E-07  0.693E-04    3.64      28.3  T
   5    -32.0766677 -0.826302E-08  0.182E-04    3.64     107.7  T
   6    -32.0766677 -0.236589E-09  0.896E-05    3.64     218.9  T
   7    -32.0766677 -0.147296E-10  0.357E-05    3.64     549.6  T
   8    -32.0766677 -0.785860E-11  0.106E-05    3.64    1842.1  T
   9    -32.0766677 -0.189715E-11  0.530E-06    3.64    3699.6  T
  10    -32.0766677 -0.170530E-12  0.159E-06    3.64   12342.6  T
     SCC iter.                  ...        0 min,  0.076 sec
     gradient                   ...        0 min,  0.002 sec
 * total energy  :   -31.5560744 Eh     change       -0.1401712E-04 Eh
   gradient norm :     0.0010123 Eh/α   predicted    -0.6202060E-05 ( -55.75%)
   displ. norm   :     0.0915158 α      lambda       -0.9410066E-05
   maximum displ.:     0.0554925 α      in ANC's #5, #3, #4, ...

........................................................................
.............................. CYCLE   28 ..............................
........................................................................

 iter      E             dE          RMSdq      gap      omega  full diag
   1    -32.0768103 -0.320768E+02  0.190E-02    3.64       0.0  T
   2    -32.0768104 -0.570695E-07  0.112E-02    3.64       1.7  T
   3    -32.0768103  0.146258E-07  0.149E-03    3.64      13.2  T
   4    -32.0768104 -0.186108E-07  0.670E-04    3.64      29.3  T
   5    -32.0768104 -0.696267E-08  0.216E-04    3.64      90.6  T
   6    -32.0768104 -0.688146E-09  0.102E-04    3.64     192.7  T
   7    -32.0768104 -0.139337E-10  0.246E-05    3.64     797.1  T
   8    -32.0768104 -0.801492E-11  0.983E-06    3.64    1994.3  T
   9    -32.0768104 -0.104450E-11  0.386E-06    3.64    5082.8  T
     SCC iter.                  ...        0 min,  0.075 sec
     gradient                   ...        0 min,  0.002 sec
 * total energy  :   -31.5560844 Eh     change       -0.9997323E-05 Eh
   gradient norm :     0.0003863 Eh/α   predicted    -0.4722774E-05 ( -52.76%)
   displ. norm   :     0.0605862 α      lambda       -0.3942310E-05
   maximum displ.:     0.0393408 α      in ANC's #5, #3, #2, ...

........................................................................
.............................. CYCLE   29 ..............................
........................................................................

 iter      E             dE          RMSdq      gap      omega  full diag
   1    -32.0769189 -0.320769E+02  0.137E-02    3.64       0.0  T
   2    -32.0769189 -0.301042E-07  0.786E-03    3.64       2.5  T
   3    -32.0769189  0.424481E-08  0.110E-03    3.64      17.9  T
   4    -32.0769189 -0.351994E-08  0.583E-04    3.64      33.6  T
   5    -32.0769189 -0.647709E-08  0.129E-04    3.64     152.1  T
   6    -32.0769189 -0.920508E-10  0.752E-05    3.64     260.8  T
   7    -32.0769189 -0.281730E-10  0.211E-05    3.64     929.0  T
   8    -32.0769189 -0.573408E-11  0.810E-06    3.64    2421.9  T
   9    -32.0769189 -0.731859E-12  0.196E-06    3.64   10027.0  T
     SCC iter.                  ...        0 min,  0.074 sec
     gradient                   ...        0 min,  0.002 sec
 * total energy  :   -31.5560887 Eh     change       -0.4283624E-05 Eh
   gradient norm :     0.0004088 Eh/α   predicted    -0.1978942E-05 ( -53.80%)
   displ. norm   :     0.0450422 α      lambda       -0.2081063E-05
   maximum displ.:     0.0292893 α      in ANC's #5, #3, #2, ...

........................................................................
.............................. CYCLE   30 ..............................
........................................................................

 iter      E             dE          RMSdq      gap      omega  full diag
   1    -32.0769654 -0.320770E+02  0.108E-02    3.64       0.0  T
   2    -32.0769654 -0.146153E-07  0.629E-03    3.64       3.1  T
   3    -32.0769654  0.517439E-09  0.716E-04    3.64      27.4  T
   4    -32.0769654 -0.211578E-08  0.325E-04    3.64      60.4  T
   5    -32.0769654 -0.851763E-09  0.139E-04    3.64     140.8  T
   6    -32.0769654 -0.330296E-09  0.678E-05    3.64     289.1  T
   7    -32.0769654 -0.846256E-11  0.141E-05    3.64    1392.1  T
   8    -32.0769654 -0.227374E-12  0.577E-06    3.64    3397.4  T
   9    -32.0769654 -0.518696E-12  0.180E-06    3.64   10922.8  T
     SCC iter.                  ...        0 min,  0.075 sec
     gradient                   ...        0 min,  0.002 sec
 * total energy  :   -31.5560910 Eh     change       -0.2240629E-05 Eh
   gradient norm :     0.0003320 Eh/α   predicted    -0.1044985E-05 ( -53.36%)
   displ. norm   :     0.0392573 α      lambda       -0.1318110E-05
   maximum displ.:     0.0241648 α      in ANC's #5, #3, #1, ...

........................................................................
.............................. CYCLE   31 ..............................
........................................................................

 iter      E             dE          RMSdq      gap      omega  full diag
   1    -32.0769187 -0.320769E+02  0.106E-02    3.64       0.0  T
   2    -32.0769187 -0.200636E-07  0.597E-03    3.64       3.3  T
   3    -32.0769187  0.868980E-09  0.865E-04    3.64      22.7  T
   4    -32.0769187 -0.353339E-09  0.389E-04    3.64      50.4  T
   5    -32.0769187 -0.309856E-08  0.107E-04    3.64     183.5  T
   6    -32.0769187 -0.232632E-10  0.479E-05    3.64     409.7  T
   7    -32.0769187 -0.148930E-10  0.185E-05    3.64    1059.5  T
   8    -32.0769187 -0.196820E-11  0.497E-06    3.64    3949.3  T
   9    -32.0769187 -0.277112E-12  0.252E-06    3.64    7768.7  T
     SCC iter.                  ...        0 min,  0.075 sec
     gradient                   ...        0 min,  0.002 sec
 * total energy  :   -31.5560922 Eh     change       -0.1267261E-05 Eh
   gradient norm :     0.0001590 Eh/α   predicted    -0.6599871E-06 ( -47.92%)
   displ. norm   :     0.0364258 α      lambda        0.3083841E-06
   maximum displ.:     0.0226192 α      in ANC's #5, #3, #1, ...

........................................................................
.............................. CYCLE   32 ..............................
........................................................................

 iter      E             dE          RMSdq      gap      omega  full diag
   1    -32.0768444 -0.320768E+02  0.998E-03    3.64       0.0  T
   2    -32.0768444 -0.186341E-07  0.557E-03    3.64       3.5  T
   3    -32.0768444  0.864382E-09  0.856E-04    3.64      22.9  T
   4    -32.0768444 -0.437055E-09  0.371E-04    3.64      52.9  T
   5    -32.0768444 -0.275097E-08  0.101E-04    3.64     193.2  T
   6    -32.0768444 -0.270362E-10  0.466E-05    3.64     421.1  T
   7    -32.0768444 -0.144240E-10  0.184E-05    3.64    1065.5  T
   8    -32.0768444 -0.171951E-11  0.485E-06    3.64    4041.7  T
   9    -32.0768444 -0.312639E-12  0.251E-06    3.64    7825.9  T
     SCC iter.                  ...        0 min,  0.079 sec
     gradient                   ...        0 min,  0.002 sec
 * total energy  :   -31.5560921 Eh     change        0.1705838E-06 Eh
   gradient norm :     0.0003557 Eh/α   predicted     0.1521194E-06 ( -10.82%)
   displ. norm   :     0.0128467 α      lambda       -0.9241719E-06
   maximum displ.:     0.0078240 α      in ANC's #5, #4, #3, ...

........................................................................
.............................. CYCLE   33 ..............................
........................................................................

 iter      E             dE          RMSdq      gap      omega  full diag
   1    -32.0769484 -0.320769E+02  0.589E-03    3.64       0.0  T
   2    -32.0769484 -0.147633E-07  0.319E-03    3.64       6.1  T
   3    -32.0769484  0.359151E-09  0.815E-04    3.64      24.1  T
   4    -32.0769484 -0.627608E-09  0.236E-04    3.64      83.2  T
   5    -32.0769484 -0.103415E-08  0.785E-05    3.64     249.8  T
   6    -32.0769484 -0.947580E-10  0.372E-05    3.64     527.7  T
   7    -32.0769484 -0.567724E-11  0.158E-05    3.64    1240.7  T
   8    -32.0769484  0.781597E-13  0.522E-06    3.64    3760.2  T
   9    -32.0769484 -0.305533E-12  0.243E-06    3.64    8069.5  T
     SCC iter.                  ...        0 min,  0.075 sec
     gradient                   ...        0 min,  0.002 sec
 * total energy  :   -31.5560929 Eh     change       -0.8291902E-06 Eh
   gradient norm :     0.0001495 Eh/α   predicted    -0.4631313E-06 ( -44.15%)
   displ. norm   :     0.0108258 α      lambda       -0.3774014E-06
   maximum displ.:     0.0068836 α      in ANC's #5, #6, #4, ...

........................................................................
.............................. CYCLE   34 ..............................
........................................................................

 iter      E             dE          RMSdq      gap      omega  full diag
   1    -32.0769749 -0.320770E+02  0.327E-03    3.64       0.0  T
   2    -32.0769749 -0.894914E-09  0.188E-03    3.64      10.4  T
   3    -32.0769749  0.411717E-09  0.226E-04    3.64      86.8  T
   4    -32.0769749 -0.503128E-09  0.960E-05    3.64     204.4  T
   5    -32.0769749 -0.142649E-09  0.319E-05    3.64     614.4  T
   6    -32.0769749 -0.900968E-11  0.141E-05    3.64    1394.6  T
   7    -32.0769749 -0.710543E-13  0.346E-06    3.64    5663.7  T
   8    -32.0769749 -0.135003E-12  0.127E-06    3.64   15414.4  T
     SCC iter.                  ...        0 min,  0.076 sec
     gradient                   ...        0 min,  0.002 sec
 * total energy  :   -31.5560934 Eh     change       -0.4700876E-06 Eh
   gradient norm :     0.0001785 Eh/α   predicted    -0.1928722E-06 ( -58.97%)
   displ. norm   :     0.0269665 α      lambda       -0.8061926E-06
   maximum displ.:     0.0136561 α      in ANC's #6, #1, #4, ...

........................................................................
.............................. CYCLE   35 ..............................
........................................................................

 iter      E             dE          RMSdq      gap      omega  full diag
   1    -32.0769653 -0.320770E+02  0.833E-03    3.64       0.0  T
   2    -32.0769653 -0.370825E-08  0.490E-03    3.64       4.0  T
   3    -32.0769653  0.146642E-09  0.300E-04    3.64      65.5  T
   4    -32.0769653 -0.622947E-09  0.173E-04    3.64     113.2  T
   5    -32.0769653 -0.632546E-09  0.565E-05    3.64     347.4  T
   6    -32.0769653 -0.137561E-10  0.267E-05    3.64     734.2  T
   7    -32.0769653 -0.100897E-11  0.663E-06    3.64    2959.1  T
   8    -32.0769653 -0.596856E-12  0.240E-06    3.64    8167.5  T
     SCC iter.                  ...        0 min,  0.074 sec
     gradient                   ...        0 min,  0.002 sec
 * total energy  :   -31.5560942 Eh     change       -0.8940566E-06 Eh
   gradient norm :     0.0001756 Eh/α   predicted    -0.4054917E-06 ( -54.65%)
   displ. norm   :     0.0303511 α      lambda       -0.5980643E-06
   maximum displ.:     0.0160016 α      in ANC's #1, #6, #4, ...

........................................................................
.............................. CYCLE   36 ..............................
........................................................................

 iter      E             dE          RMSdq      gap      omega  full diag
   1    -32.0769263 -0.320769E+02  0.939E-03    3.64       0.0  T
   2    -32.0769263 -0.384639E-08  0.554E-03    3.64       3.5  T
   3    -32.0769263  0.877520E-10  0.299E-04    3.64      65.6  T
   4    -32.0769263 -0.869541E-09  0.183E-04    3.64     107.2  T
   5    -32.0769263 -0.536659E-09  0.616E-05    3.64     318.6  T
   6    -32.0769263 -0.842704E-11  0.227E-05    3.64     865.7  T
   7    -32.0769263 -0.279954E-11  0.761E-06    3.64    2578.5  T
   8    -32.0769263 -0.319744E-12  0.260E-06    3.64    7533.1  T
     SCC iter.                  ...        0 min,  0.073 sec
     gradient                   ...        0 min,  0.002 sec
 * total energy  :   -31.5560949 Eh     change       -0.6256207E-06 Eh
   gradient norm :     0.0001145 Eh/α   predicted    -0.3018235E-06 ( -51.76%)
   displ. norm   :     0.0210561 α      lambda       -0.3504396E-06
   maximum displ.:     0.0120172 α      in ANC's #1, #3, #4, ...

........................................................................
.............................. CYCLE   37 ..............................
........................................................................

 iter      E             dE          RMSdq      gap      omega  full diag
   1    -32.0768977 -0.320769E+02  0.659E-03    3.64       0.0  T
   2    -32.0768977 -0.309254E-08  0.385E-03    3.64       5.1  T
   3    -32.0768977 -0.354476E-09  0.253E-04    3.64      77.4  T
   4    -32.0768977 -0.209418E-09  0.121E-04    3.64     162.7  T
   5    -32.0768977 -0.134307E-09  0.441E-05    3.64     444.3  T
   6    -32.0768977 -0.111555E-11  0.231E-05    3.64     847.3  T
   7    -32.0768977 -0.736122E-11  0.608E-06    3.64    3226.9  T
   8    -32.0768977 -0.994760E-13  0.208E-06    3.64    9422.3  T
     SCC iter.                  ...        0 min,  0.080 sec
     gradient                   ...        0 min,  0.002 sec
 * total energy  :   -31.5560953 Eh     change       -0.4254448E-06 Eh
   gradient norm :     0.0000929 Eh/α   predicted    -0.1775218E-06 ( -58.27%)
   displ. norm   :     0.0227660 α      lambda       -0.4358940E-06
   maximum displ.:     0.0131319 α      in ANC's #1, #3, #2, ...

........................................................................
.............................. CYCLE   38 ..............................
........................................................................

 iter      E             dE          RMSdq      gap      omega  full diag
   1    -32.0768828 -0.320769E+02  0.749E-03    3.64       0.0  T
   2    -32.0768828 -0.355381E-08  0.435E-03    3.64       4.5  T
   3    -32.0768828 -0.647724E-09  0.265E-04    3.64      73.9  T
   4    -32.0768828 -0.150514E-09  0.115E-04    3.64     169.9  T
   5    -32.0768828 -0.695408E-10  0.430E-05    3.64     456.6  T
   6    -32.0768828  0.117950E-11  0.180E-05    3.64    1088.5  T
   7    -32.0768828 -0.265032E-11  0.494E-06    3.64    3971.3  T
   8    -32.0768828 -0.213163E-12  0.191E-06    3.64   10258.2  T
     SCC iter.                  ...        0 min,  0.078 sec
     gradient                   ...        0 min,  0.002 sec
 * total energy  :   -31.5560959 Eh     change       -0.5934439E-06 Eh
   gradient norm :     0.0001291 Eh/α   predicted    -0.2229957E-06 ( -62.42%)
   displ. norm   :     0.0352169 α      lambda       -0.7315198E-06
   maximum displ.:     0.0202178 α      in ANC's #1, #3, #2, ...

........................................................................
.............................. CYCLE   39 ..............................
........................................................................

 iter      E             dE          RMSdq      gap      omega  full diag
   1    -32.0768504 -0.320769E+02  0.122E-02    3.64       0.0  T
   2    -32.0768504 -0.813232E-08  0.711E-03    3.64       2.8  T
   3    -32.0768504 -0.170620E-08  0.392E-04    3.64      50.0  T
   4    -32.0768504 -0.193069E-09  0.160E-04    3.64     122.4  T
   5    -32.0768504 -0.295280E-09  0.702E-05    3.64     279.2  T
   6    -32.0768504 -0.230216E-10  0.259E-05    3.64     758.0  T
   7    -32.0768504 -0.687095E-11  0.695E-06    3.64    2823.1  T
   8    -32.0768504 -0.362377E-12  0.236E-06    3.64    8316.0  T
     SCC iter.                  ...        0 min,  0.075 sec
     gradient                   ...        0 min,  0.003 sec
 * total energy  :   -31.5560969 Eh     change       -0.9902640E-06 Eh
   gradient norm :     0.0001949 Eh/α   predicted    -0.3675192E-06 ( -62.89%)
   displ. norm   :     0.0602447 α      lambda       -0.1220844E-05
   maximum displ.:     0.0348221 α      in ANC's #3, #1, #2, ...

........................................................................
.............................. CYCLE   40 ..............................
........................................................................

 iter      E             dE          RMSdq      gap      omega  full diag
   1    -32.0768188 -0.320768E+02  0.211E-02    3.64       0.0  T
   2    -32.0768188 -0.237285E-07  0.123E-02    3.64       1.6  T
   3    -32.0768189 -0.448716E-08  0.684E-04    3.64      28.7  T
   4    -32.0768189 -0.452268E-09  0.317E-04    3.64      61.9  T
   5    -32.0768189 -0.155800E-08  0.128E-04    3.64     152.9  T
   6    -32.0768189 -0.514433E-10  0.499E-05    3.64     392.7  T
   7    -32.0768189 -0.292033E-10  0.117E-05    3.64    1675.8  T
   8    -32.0768189 -0.183320E-11  0.445E-06    3.64    4403.2  T
   9    -32.0768189 -0.994760E-13  0.189E-06    3.64   10373.2  T
     SCC iter.                  ...        0 min,  0.076 sec
     gradient                   ...        0 min,  0.002 sec
 * total energy  :   -31.5560985 Eh     change       -0.1624432E-05 Eh
   gradient norm :     0.0002398 Eh/α   predicted    -0.6136895E-06 ( -62.22%)
   displ. norm   :     0.1094953 α      lambda       -0.2029769E-05
   maximum displ.:     0.0640444 α      in ANC's #3, #1, #2, ...

........................................................................
.............................. CYCLE   41 ..............................
........................................................................

 iter      E             dE          RMSdq      gap      omega  full diag
   1    -32.0766869 -0.320767E+02  0.389E-02    3.64       0.0  T
   2    -32.0766870 -0.706979E-07  0.227E-02    3.64       1.0  T
   3    -32.0766870 -0.129282E-07  0.120E-03    3.64      16.4  T
   4    -32.0766870 -0.163701E-08  0.617E-04    3.64      31.8  T
   5    -32.0766870 -0.688367E-08  0.235E-04    3.64      83.6  T
   6    -32.0766870 -0.221981E-09  0.901E-05    3.64     217.7  T
   7    -32.0766870 -0.691074E-10  0.228E-05    3.64     860.9  T
   8    -32.0766870 -0.748202E-11  0.735E-06    3.64    2667.2  T
   9    -32.0766870 -0.177636E-12  0.330E-06    3.64    5943.6  T
     SCC iter.                  ...        0 min,  0.075 sec
     gradient                   ...        0 min,  0.002 sec
 * total energy  :   -31.5561011 Eh     change       -0.2564243E-05 Eh
   gradient norm :     0.0003468 Eh/α   predicted    -0.1021873E-05 ( -60.15%)
   displ. norm   :     0.1376874 α      lambda       -0.2258264E-05
   maximum displ.:     0.0812453 α      in ANC's #1, #3, #2, ...

........................................................................
.............................. CYCLE   42 ..............................
........................................................................

 iter      E             dE          RMSdq      gap      omega  full diag
   1    -32.0765906 -0.320766E+02  0.490E-02    3.64       0.0  T
   2    -32.0765908 -0.116490E-06  0.285E-02    3.64       1.0  T
   3    -32.0765908 -0.160985E-07  0.156E-03    3.64      12.6  T
   4    -32.0765908 -0.335596E-08  0.880E-04    3.64      22.3  T
   5    -32.0765908 -0.155107E-07  0.293E-04    3.64      66.9  T
   6    -32.0765908 -0.137881E-09  0.114E-04    3.64     172.3  T
   7    -32.0765908 -0.133475E-09  0.244E-05    3.64     804.1  T
   8    -32.0765908 -0.602540E-11  0.863E-06    3.64    2272.1  T
   9    -32.0765908 -0.234479E-12  0.396E-06    3.64    4954.9  T
     SCC iter.                  ...        0 min,  0.076 sec
     gradient                   ...        0 min,  0.002 sec
 * total energy  :   -31.5561037 Eh     change       -0.2663701E-05 Eh
   gradient norm :     0.0004103 Eh/α   predicted    -0.1142290E-05 ( -57.12%)
   displ. norm   :     0.0921166 α      lambda       -0.1525979E-05
   maximum displ.:     0.0549209 α      in ANC's #1, #3, #2, ...
 * RMSD in coord.:     0.1899793 α      energy gain  -0.2943480E-03 Eh

generating ANC from model Hessian ...
Using Lindh-Hessian (1995)
 Shifting diagonal of input Hessian by   9.157709958497648E-003
 Lowest  eigenvalues of input Hessian
    0.000000    0.000000    0.000000    0.000000    0.000000    0.000000
    0.010000    0.010169    0.010724    0.010922    0.011419    0.012900
    0.015028    0.016999    0.018418    0.018794    0.022296    0.024215
 Highest eigenvalues
    1.363163    1.554065    1.573036    1.882148    1.988012    2.004310
 

........................................................................
.............................. CYCLE   43 ..............................
........................................................................

 iter      E             dE          RMSdq      gap      omega  full diag
   1    -32.0767419 -0.320767E+02  0.332E-02    3.64       0.0  T
   2    -32.0767420 -0.478049E-07  0.194E-02    3.64       1.0  T
   3    -32.0767420  0.387246E-10  0.120E-03    3.64      16.3  T
   4    -32.0767420 -0.998435E-08  0.630E-04    3.64      31.2  T
   5    -32.0767420 -0.649324E-08  0.211E-04    3.64      93.0  T
   6    -32.0767420 -0.243965E-09  0.922E-05    3.64     212.7  T
   7    -32.0767420 -0.464979E-10  0.194E-05    3.64    1009.7  T
   8    -32.0767420 -0.431299E-11  0.696E-06    3.64    2816.3  T
   9    -32.0767420 -0.106581E-12  0.236E-06    3.64    8311.4  T
     SCC iter.                  ...        0 min,  0.074 sec
     gradient                   ...        0 min,  0.002 sec
 * total energy  :   -31.5561055 Eh     change       -0.1807895E-05 Eh
   gradient norm :     0.0002697 Eh/α   predicted     0.0000000E+00 (-100.00%)
   displ. norm   :     0.0082977 α      lambda       -0.8965517E-07
   maximum displ.:     0.0051870 α      in ANC's #2, #7, #3, ...

........................................................................
.............................. CYCLE   44 ..............................
........................................................................

 iter      E             dE          RMSdq      gap      omega  full diag
   1    -32.0769730 -0.320770E+02  0.291E-03    3.64       0.0  T
   2    -32.0769730 -0.239804E-08  0.169E-03    3.64      11.6  T
   3    -32.0769730  0.484611E-09  0.256E-04    3.64      76.7  T
   4    -32.0769730 -0.810545E-09  0.880E-05    3.64     222.9  T
   5    -32.0769730 -0.813856E-10  0.468E-05    3.64     419.4  T
   6    -32.0769730 -0.106652E-10  0.177E-05    3.64    1105.6  T
   7    -32.0769730 -0.262190E-11  0.706E-06    3.64    2777.4  T
   8    -32.0769730 -0.710543E-13  0.232E-06    3.64    8446.4  T
     SCC iter.                  ...        0 min,  0.073 sec
     gradient                   ...        0 min,  0.002 sec
 * total energy  :   -31.5561061 Eh     change       -0.5756097E-06 Eh
   gradient norm :     0.0001097 Eh/α   predicted    -0.2675799E-06 ( -53.51%)
   displ. norm   :     0.0142556 α      lambda       -0.4992033E-06
   maximum displ.:     0.0088071 α      in ANC's #2, #3, #7, ...

........................................................................
.............................. CYCLE   45 ..............................
........................................................................

 iter      E             dE          RMSdq      gap      omega  full diag
   1    -32.0770338 -0.320770E+02  0.403E-03    3.64       0.0  T
   2    -32.0770338 -0.149896E-08  0.237E-03    3.64       8.3  T
   3    -32.0770338  0.880995E-09  0.240E-04    3.64      81.6  T
   4    -32.0770338 -0.114777E-08  0.110E-04    3.64     178.1  T
   5    -32.0770338 -0.211408E-09  0.379E-05    3.64     517.3  T
   6    -32.0770338 -0.952127E-11  0.142E-05    3.64    1378.8  T
   7    -32.0770338 -0.127898E-12  0.436E-06    3.64    4496.0  T
   8    -32.0770338 -0.177636E-12  0.200E-06    3.64    9829.9  T
     SCC iter.                  ...        0 min,  0.073 sec
     gradient                   ...        0 min,  0.002 sec
 * total energy  :   -31.5561067 Eh     change       -0.5427295E-06 Eh
   gradient norm :     0.0001858 Eh/α   predicted    -0.2504170E-06 ( -53.86%)
   displ. norm   :     0.0146823 α      lambda       -0.3493703E-06
   maximum displ.:     0.0096408 α      in ANC's #2, #3, #9, ...

........................................................................
.............................. CYCLE   46 ..............................
........................................................................

 iter      E             dE          RMSdq      gap      omega  full diag
   1    -32.0769586 -0.320770E+02  0.425E-03    3.64       0.0  T
   2    -32.0769586 -0.252944E-08  0.246E-03    3.64       8.0  T
   3    -32.0769586  0.387317E-09  0.310E-04    3.64      63.3  T
   4    -32.0769586 -0.588592E-09  0.149E-04    3.64     131.4  T
   5    -32.0769586 -0.375444E-09  0.456E-05    3.64     430.3  T
   6    -32.0769586 -0.280096E-10  0.160E-05    3.64    1225.6  T
   7    -32.0769586 -0.412115E-12  0.676E-06    3.64    2901.9  T
   8    -32.0769586 -0.142109E-12  0.183E-06    3.64   10724.2  T
     SCC iter.                  ...        0 min,  0.075 sec
     gradient                   ...        0 min,  0.002 sec
 * total energy  :   -31.5561070 Eh     change       -0.3680496E-06 Eh
   gradient norm :     0.0001145 Eh/α   predicted    -0.1768530E-06 ( -51.95%)
   displ. norm   :     0.0125670 α      lambda       -0.2355371E-06
   maximum displ.:     0.0083929 α      in ANC's #2, #1, #3, ...

........................................................................
.............................. CYCLE   47 ..............................
........................................................................

 iter      E             dE          RMSdq      gap      omega  full diag
   1    -32.0769281 -0.320769E+02  0.402E-03    3.64       0.0  T
   2    -32.0769281 -0.207517E-08  0.233E-03    3.64       8.4  T
   3    -32.0769281 -0.388809E-10  0.272E-04    3.64      72.2  T
   4    -32.0769281 -0.334637E-09  0.102E-04    3.64     192.4  T
   5    -32.0769281 -0.482245E-10  0.311E-05    3.64     630.5  T
   6    -32.0769281 -0.147509E-10  0.145E-05    3.64    1353.4  T
   7    -32.0769281 -0.112266E-11  0.548E-06    3.64    3580.9  T
   8    -32.0769281 -0.135003E-12  0.135E-06    3.64   14523.2  T
     SCC iter.                  ...        0 min,  0.074 sec
     gradient                   ...        0 min,  0.002 sec
 * total energy  :   -31.5561073 Eh     change       -0.2570992E-06 Eh
   gradient norm :     0.0000652 Eh/α   predicted    -0.1199310E-06 ( -53.35%)
   displ. norm   :     0.0114353 α      lambda       -0.1772869E-06
   maximum displ.:     0.0076264 α      in ANC's #2, #1, #4, ...

........................................................................
.............................. CYCLE   48 ..............................
........................................................................

 iter      E             dE          RMSdq      gap      omega  full diag
   1    -32.0768983 -0.320769E+02  0.392E-03    3.64       0.0  T
   2    -32.0768983 -0.118955E-08  0.229E-03    3.64       8.6  T
   3    -32.0768983 -0.185096E-09  0.171E-04    3.64     114.7  T
   4    -32.0768983 -0.767884E-10  0.747E-05    3.64     262.5  T
   5    -32.0768983 -0.493543E-10  0.209E-05    3.64     936.7  T
   6    -32.0768983 -0.279243E-11  0.110E-05    3.64    1780.7  T
   7    -32.0768983 -0.135003E-11  0.375E-06    3.64    5236.7  T
   8    -32.0768983  0.710543E-14  0.725E-07    3.64   27037.7  T
     SCC iter.                  ...        0 min,  0.073 sec
     gradient                   ...        0 min,  0.002 sec
 * total energy  :   -31.5561075 Eh     change       -0.2041400E-06 Eh
   gradient norm :     0.0000654 Eh/α   predicted    -0.9100514E-07 ( -55.42%)
[...]
         :: add. restraining           0.000000000000 Eh    ::
         :: total charge              -0.000000000000 e     ::
         :::::::::::::::::::::::::::::::::::::::::::::::::::::

           ------------------------------------------------- 
          |                Numerical Hessian                |
           ------------------------------------------------- 
step length          :   0.00500
SCC accuracy         :   0.30000
Hessian scale factor :   1.00000
frozen atoms in %    :   0.00000    0
RMS gradient         :   0.00005
estimated CPU  time      1.11 min
estimated wall time      0.14 min

writing file <hessian>.

 projected vibrational frequencies (cm⁻¹)
eigval :       -0.00    -0.00     0.00     0.00     0.00     0.00
eigval :       21.73    52.35    71.74    94.81   142.22   166.88
eigval :      203.44   215.67   224.48   266.04   312.70   329.02
eigval :      363.35   425.89   450.36   586.08   655.58   660.40
eigval :      686.30   701.64   739.12   754.45   777.79   874.81
eigval :      898.96   926.65   932.76   968.76   974.89   997.45
eigval :     1013.14  1016.92  1071.35  1076.74  1083.14  1117.40
eigval :     1121.39  1181.65  1198.90  1220.60  1225.81  1250.21
eigval :     1255.45  1278.24  1315.54  1409.41  1411.26  1423.36
eigval :     1445.70  1450.54  1458.56  1497.35  1498.56  1501.91
eigval :     1502.30  1579.82  1589.67  2929.89  2935.36  2946.90
eigval :     2950.11  3013.28  3014.04  3020.07  3026.78  3029.59
eigval :     3033.67  3063.19  3064.00  3071.85  3077.39  3087.87
           -------------------------------------------------
          |                Property Printout                |
           -------------------------------------------------

    * Orbital Energies and Occupations

         #    Occupation            Energy/Eh            Energy/eV
      -------------------------------------------------------------
         1        2.0000           -0.6578539             -17.9011
       ...           ...                  ...                  ...
        18        2.0000           -0.4774287             -12.9915
        19        2.0000           -0.4745338             -12.9127
        20        2.0000           -0.4629508             -12.5975
        21        2.0000           -0.4620658             -12.5735
        22        2.0000           -0.4534696             -12.3395
        23        2.0000           -0.4449045             -12.1065
        24        2.0000           -0.4376198             -11.9082
        25        2.0000           -0.4232334             -11.5168
        26        2.0000           -0.4184321             -11.3861
        27        2.0000           -0.4045989             -11.0097
        28        2.0000           -0.4044157             -11.0047
        29        2.0000           -0.3968068             -10.7977
        30        2.0000           -0.3669801              -9.9860 (HOMO)
        31                         -0.2332668              -6.3475 (LUMO)
        32                         -0.2229795              -6.0676
        33                         -0.1564106              -4.2561
        34                         -0.1498164              -4.0767
        35                         -0.0930259              -2.5314
        36                          0.0047012               0.1279
        37                          0.0553677               1.5066
        38                          0.0889063               2.4193
        39                          0.0954200               2.5965
        40                          0.1355938               3.6897
        41                          0.1377791               3.7492
       ...                                ...                  ...
        64                          0.7863897              21.3988
      -------------------------------------------------------------
                  HL-Gap            0.1337132 Eh            3.6385 eV
             Fermi-level           -0.3001235 Eh           -8.1668 eV

     #   Z          covCN         q      C6AA      α(0)
     1  15 P        3.046    -0.116   165.504    23.111
     2   6 C        3.748    -0.046    21.472     6.609
     3   1 H        0.925     0.043     2.413     2.429
     4   1 H        0.926     0.038     2.469     2.457
     5   6 C        3.812    -0.098    22.355     6.730
     6   1 H        0.925     0.037     2.493     2.469
     7   1 H        0.925     0.042     2.423     2.434
     8   1 H        0.925     0.033     2.538     2.491
     9   6 C        2.916     0.008    27.844     8.653
    10   6 C        2.960    -0.028    28.705     8.788
    11   6 C        3.016    -0.030    28.736     8.793
    12   6 C        2.919    -0.031    28.780     8.797
    13   6 C        2.918    -0.030    28.741     8.791
    14   6 C        2.920    -0.029    28.731     8.790
    15   1 H        0.926     0.032     2.559     2.501
    16   1 H        0.925     0.040     2.454     2.450
    17   1 H        0.926     0.028     2.612     2.527
    18   1 H        0.926     0.030     2.580     2.512
    19   1 H        0.926     0.029     2.596     2.519
    20   6 C        3.748    -0.045    21.446     6.605
    21   1 H        0.925     0.042     2.425     2.435
    22   1 H        0.926     0.039     2.464     2.454
    23   6 C        3.820    -0.096    22.314     6.723
    24   1 H        0.925     0.036     2.509     2.477
    25   1 H        0.925     0.041     2.435     2.440
    26   1 H        0.925     0.032     2.556     2.500

 Mol. C6AA /au·bohr⁶  :       7598.597009
 Mol. C8AA /au·bohr⁸  :     202572.512721
 Mol. α(0) /au        :        139.488515


Wiberg/Mayer (AO) data.
largest (>0.10) Wiberg bond orders for each atom

 ---------------------------------------------------------------------------
     #   Z sym  total        # sym  WBO       # sym  WBO       # sym  WBO
 ---------------------------------------------------------------------------
     1  15 P    3.345 --    20 C    1.027     2 C    1.022     9 C    1.006
     2   6 C    3.995 --     1 P    1.022     5 C    1.016     4 H    0.959
                             3 H    0.951
     3   1 H    0.998 --     2 C    0.951
     4   1 H    0.998 --     2 C    0.959
     5   6 C    3.996 --     2 C    1.016     6 H    0.985     7 H    0.985
                             8 H    0.984
     6   1 H    0.999 --     5 C    0.985
     7   1 H    0.998 --     5 C    0.985
     8   1 H    0.998 --     5 C    0.984
     9   6 C    3.983 --    11 C    1.408    10 C    1.400     1 P    1.006
                            14 C    0.108
    10   6 C    3.992 --    12 C    1.450     9 C    1.400    15 H    0.961
                            13 C    0.111
    11   6 C    3.991 --    13 C    1.443     9 C    1.408    16 H    0.964
                            12 C    0.108
    12   6 C    3.993 --    10 C    1.450    14 C    1.432    17 H    0.970
                            11 C    0.108
    13   6 C    3.992 --    11 C    1.443    14 C    1.441    18 H    0.970
                            10 C    0.111
    14   6 C    3.989 --    13 C    1.441    12 C    1.432    19 H    0.971
                             9 C    0.108
    15   1 H    0.999 --    10 C    0.961
    16   1 H    0.998 --    11 C    0.964
    17   1 H    0.999 --    12 C    0.970
    18   1 H    0.999 --    13 C    0.970
    19   1 H    0.998 --    14 C    0.971
    20   6 C    3.993 --     1 P    1.027    23 C    1.016    22 H    0.957
                            21 H    0.950
    21   1 H    0.998 --    20 C    0.950
    22   1 H    0.998 --    20 C    0.957
    23   6 C    3.997 --    20 C    1.016    26 H    0.985    25 H    0.984
                            24 H    0.984
    24   1 H    0.999 --    23 C    0.984
    25   1 H    0.998 --    23 C    0.984
    26   1 H    0.999 --    23 C    0.985
 ---------------------------------------------------------------------------

Topologies differ in total number of bonds
Writing topology from bond orders to xtbtopo.mol

molecular dipole:
                 x           y           z       tot (Debye)
 q only:       -0.059       0.235      -0.081
   full:        0.032       0.630      -0.130       1.638
molecular quadrupole (traceless):
                xx          xy          yy          xz          yz          zz
 q only:       -0.615       0.636      -0.336       0.930      -2.124       0.952
  q+dip:        0.610       2.646       1.709       1.988      -5.967      -2.319
   full:        0.523       2.352      -0.808       0.666      -5.252       0.284

           -------------------------------------------------
          |                Geometry Summary                 |
           -------------------------------------------------

      molecular mass/u    :      166.2002322
   center of mass at/Å    :        2.5399158       0.7508116      -2.3315725
  moments of inertia/u·Å² :        0.3321043E+03   0.8215160E+03   0.9276905E+03
rotational constants/cm⁻¹ :        0.5076005E-01   0.2052015E-01   0.1817161E-01

 * 23 selected distances

     #   Z          #   Z                                           value/Å
     2   6 C        3   1 H                                       1.0933749
     2   6 C        4   1 H                                       1.0940862
     2   6 C        5   6 C                                       1.5226686 (max)
     5   6 C        6   1 H                                       1.0879468
     5   6 C        7   1 H                                       1.0881967
     5   6 C        8   1 H                                       1.0889017
     9   6 C       10   6 C                                       1.3902114
     9   6 C       11   6 C                                       1.3904728
    10   6 C       12   6 C                                       1.3826795
    11   6 C       13   6 C                                       1.3833571
    12   6 C       14   6 C                                       1.3853152
    13   6 C       14   6 C                                       1.3841735
    10   6 C       15   1 H                                       1.0807602
    11   6 C       16   1 H                                       1.0813443
    12   6 C       17   1 H                                       1.0809835
    13   6 C       18   1 H                                       1.0805037
    14   6 C       19   1 H                                       1.0803121 (min)
    20   6 C       21   1 H                                       1.0932952
    20   6 C       22   1 H                                       1.0937342
    20   6 C       23   6 C                                       1.5224042
    23   6 C       24   1 H                                       1.0889177
    23   6 C       25   1 H                                       1.0883605
    23   6 C       26   1 H                                       1.0889160

 * 2 distinct bonds (by element types)

   Z      Z             #   av. dist./Å        max./Å        min./Å
   1 H    6 C          15     1.0873089     1.0940862     1.0803121
   6 C    6 C           8     1.4201603     1.5226686     1.3826795

           -------------------------------------------------
          |               Frequency Printout                |
           -------------------------------------------------
 projected vibrational frequencies (cm⁻¹)
eigval :       -0.00    -0.00     0.00     0.00     0.00     0.00
eigval :       21.73    52.35    71.74    94.81   142.22   166.88
eigval :      203.44   215.67   224.48   266.04   312.70   329.02
eigval :      363.35   425.89   450.36   586.08   655.58   660.40
eigval :      686.30   701.64   739.12   754.45   777.79   874.81
eigval :      898.96   926.65   932.76   968.76   974.89   997.45
eigval :     1013.14  1016.92  1071.35  1076.74  1083.14  1117.40
eigval :     1121.39  1181.65  1198.90  1220.60  1225.81  1250.21
eigval :     1255.45  1278.24  1315.54  1409.41  1411.26  1423.36
eigval :     1445.70  1450.54  1458.56  1497.35  1498.56  1501.91
eigval :     1502.30  1579.82  1589.67  2929.89  2935.36  2946.90
eigval :     2950.11  3013.28  3014.04  3020.07  3026.78  3029.59
eigval :     3033.67  3063.19  3064.00  3071.85  3077.39  3087.87
 reduced masses (amu)
   1: 12.57   2: 14.89   3: 13.36   4: 11.92   5: 12.93   6: 11.14   7: 10.05   8:  9.85
   9:  9.03  10:  9.37  11:  8.23  12:  6.44  13:  7.72  14:  3.90  15:  8.53  16:  9.80
  17: 13.37  18: 12.90  19:  8.83  20: 20.73  21: 10.50  22: 11.18  23: 11.88  24: 11.68
  25: 14.17  26: 15.23  27:  4.22  28:  4.09  29:  5.03  30:  3.30  31:  3.54  32:  4.19
  33:  3.01  34:  9.82  35:  3.64  36:  3.20  37:  3.67  38:  4.26  39:  9.61  40:  9.30
  41:  7.88  42:  7.44  43:  5.58  44:  1.33  45:  1.94  46:  3.69  47:  3.34  48:  4.35
  49:  4.27  50:  3.40  51: 11.95  52:  2.94  53:  2.95  54:  8.60  55:  2.47  56:  2.33
  57:  7.61  58:  1.52  59:  1.54  60:  1.55  61:  1.55  62: 11.45  63: 11.46  64:  1.92
  65:  1.93  66:  1.53  67:  1.56  68:  1.89  69:  1.86  70:  1.86  71:  1.94  72:  1.41
  73:  1.35  74:  1.76  75:  1.79  76:  1.82  77:  1.87  78:  1.92
 IR intensities (km·mol⁻¹)
   1:  0.05   2:  0.05   3:  0.02   4:  0.09   5:  0.19   6:  0.09   7:  0.20   8:  0.02
   9:  0.06  10:  0.14  11:  0.30  12:  0.18  13:  0.10  14:  0.33  15:  0.20  16:  0.35
  17:  0.07  18:  0.18  19:  0.01  20:  8.84  21:  2.77  22:  0.12  23:  5.21  24:  4.70
  25: 11.41  26: 47.28  27:  6.84  28: 18.65  29: 25.71  30:  0.11  31:  0.04  32:  0.03
  33:  0.00  34:  1.96  35:  1.74  36:  3.83  37:  3.01  38:  3.05  39:  2.49  40:  4.77
  41:  0.26  42:  3.87  43:  3.90  44:  0.03  45:  0.68  46:  1.11  47:  2.01  48:  6.88
  49:  8.39  50:  1.09  51:  0.81  52:  1.67  53:  1.87  54:  1.56  55:  0.73  56:  0.22
  57:  0.36  58:  2.67  59:  2.89  60:  2.26  61:  0.80  62:  0.58  63:  0.48  64:  6.46
  65: 38.64  66:  8.94  67: 26.61  68: 48.33  69: 49.40  70: 31.66  71: 31.29  72: 18.36
  73: 24.50  74: 12.52  75:  4.49  76: 10.81  77: 86.23  78: 61.82
 Raman intensities (Ä⁴*amu⁻¹)
   1:  0.00   2:  0.00   3:  0.00   4:  0.00   5:  0.00   6:  0.00   7:  0.00   8:  0.00
   9:  0.00  10:  0.00  11:  0.00  12:  0.00  13:  0.00  14:  0.00  15:  0.00  16:  0.00
  17:  0.00  18:  0.00  19:  0.00  20:  0.00  21:  0.00  22:  0.00  23:  0.00  24:  0.00
  25:  0.00  26:  0.00  27:  0.00  28:  0.00  29:  0.00  30:  0.00  31:  0.00  32:  0.00
  33:  0.00  34:  0.00  35:  0.00  36:  0.00  37:  0.00  38:  0.00  39:  0.00  40:  0.00
  41:  0.00  42:  0.00  43:  0.00  44:  0.00  45:  0.00  46:  0.00  47:  0.00  48:  0.00
  49:  0.00  50:  0.00  51:  0.00  52:  0.00  53:  0.00  54:  0.00  55:  0.00  56:  0.00
  57:  0.00  58:  0.00  59:  0.00  60:  0.00  61:  0.00  62:  0.00  63:  0.00  64:  0.00
  65:  0.00  66:  0.00  67:  0.00  68:  0.00  69:  0.00  70:  0.00  71:  0.00  72:  0.00
  73:  0.00  74:  0.00  75:  0.00  76:  0.00  77:  0.00  78:  0.00
 output can be read by thermo (or use thermo option).
 writing <g98.out> molden fake output.
 recommended (thermochemical) frequency scaling factor: 1.0
           -------------------------------------------------
          |             Thermodynamic Functions             |
           -------------------------------------------------

Refinement of some symmetry elements was terminated before convergence was reached.
Some symmetry elements may remain unidentified.
Molecule has no symmetry elements
It seems to be the C1 point group
c1  symmetry found (for desy threshold:  0.10E+00) used in thermo

          ...................................................
          :                      SETUP                      :
          :.................................................:
          :  # frequencies                          72      :
          :  # imaginary freq.                       0      :
          :  linear?                             false      :
          :  only rotor calc.                    false      :
          :  symmetry                               c1      :
          :  rotational number                       1      :
          :  scaling factor                  1.0000000      :
          :  rotor cutoff                   50.0000000 cm⁻¹ :
          :  imag. cutoff                  -20.0000000 cm⁻¹ :
          :.................................................:

    mode    ω/cm⁻¹     T·S(HO)/kcal·mol⁻¹    T·S(FR)/kcal·mol⁻¹   T·S(vib)
   ------------------------------------------------------------------------
       1     21.73    -1.92897 (  3.44%)    -1.30314 ( 96.56%)    -1.32468
       2     52.35    -1.40921 ( 54.58%)    -1.04280 ( 45.42%)    -1.24280
       3     71.74    -1.22391 ( 80.91%)    -0.94950 ( 19.09%)    -1.17152
       4     94.81    -1.06090 ( 92.82%)    -0.86692 (  7.18%)    -1.04697
       5    142.22    -0.82699 ( 98.50%)    -0.74682 (  1.50%)    -0.82579
       6    166.88    -0.73654 ( 99.20%)    -0.69947 (  0.80%)    -0.73624
       7    203.44    -0.62663 ( 99.64%)    -0.64078 (  0.36%)    -0.62668
       8    215.67    -0.59484 ( 99.71%)    -0.62349 (  0.29%)    -0.59492
       9    224.48    -0.57323 ( 99.75%)    -0.61163 (  0.25%)    -0.57333
      10    266.04    -0.48354 ( 99.88%)    -0.56132 (  0.12%)    -0.48364
   ------------------------------------------------------------------------

   temp. (K)  partition function   enthalpy   heat capacity  entropy
                                   cal/mol     cal/K/mol   cal/K/mol   J/K/mol
 298.15  VIB  0.311E+05             6237.141     39.245     38.666
         ROT  0.122E+07              888.752      2.981     30.823
         INT  0.378E+11             7125.893     42.226     69.489
         TR   0.207E+28             1481.254      4.968     41.214
         TOT                        8607.1472    47.1942   110.7025   463.1794

       T/K    H(0)-H(T)+PV         H(T)/Eh          T*S/Eh         G(T)/Eh
   ------------------------------------------------------------------------
    298.15    0.137164E-01    0.232273E+00    0.525983E-01    0.179675E+00
   ------------------------------------------------------------------------

         :::::::::::::::::::::::::::::::::::::::::::::::::::::
         ::                  THERMODYNAMIC                  ::
         :::::::::::::::::::::::::::::::::::::::::::::::::::::
         :: total free energy         -31.376435557825 Eh   ::
         ::.................................................::
         :: total energy              -31.556110141273 Eh   ::
         :: zero point energy           0.218556568865 Eh   ::
         :: G(RRHO) w/o ZPVE           -0.038881985418 Eh   ::
         :: G(RRHO) contrib.            0.179674583447 Eh   ::
         :::::::::::::::::::::::::::::::::::::::::::::::::::::

optimized geometry written to: xtbopt.xyz


           -------------------------------------------------
          | TOTAL ENERGY              -31.556110141273 Eh   |
          | TOTAL ENTHALPY            -31.323837210296 Eh   |
          | TOTAL FREE ENERGY         -31.376435557825 Eh   |
          | GRADIENT NORM               0.000045700260 Eh/α |
          | HOMO-LUMO GAP               3.638521992292 eV   |
           -------------------------------------------------

------------------------------------------------------------------------
 * finished run on 2025/07/14 at 11:33:08.718     
------------------------------------------------------------------------
 total:
 * wall-time:     0 d,  0 h,  0 min,  8.941 sec
 *  cpu-time:     0 d,  0 h,  1 min, 32.276 sec
 * ratio c/w:    10.321 speedup
 SCF:
 * wall-time:     0 d,  0 h,  0 min,  0.088 sec
 *  cpu-time:     0 d,  0 h,  0 min,  1.056 sec
 * ratio c/w:    11.954 speedup
 ANC optimizer:
 * wall-time:     0 d,  0 h,  0 min,  5.485 sec
 *  cpu-time:     0 d,  0 h,  1 min,  4.829 sec
 * ratio c/w:    11.818 speedup
 analytical hessian:
 * wall-time:     0 d,  0 h,  0 min,  3.358 sec
 *  cpu-time:     0 d,  0 h,  0 min, 26.290 sec
 * ratio c/w:     7.830 speedup

