      -----------------------------------------------------------      
     |                   =====================                   |     
     |                           x T B                           |     
     |                   =====================                   |     
     |                         S. Grimme                         |     
     |          Mulliken Center for Theoretical Chemistry        |     
     |                    University of Bonn                     |     
      -----------------------------------------------------------      

   * xtb version 6.7.0 (08769fc) compiled by 'albert@albert-system' on 2024-03-04

   xtb is free software: you can redistribute it and/or modify it under
   the terms of the GNU Lesser General Public License as published by
   the Free Software Foundation, either version 3 of the License, or
   (at your option) any later version.
   
   xtb is distributed in the hope that it will be useful,
   but WITHOUT ANY WARRANTY; without even the implied warranty of
   MERCHANTABILITY or FITNESS FOR A PARTICULAR PURPOSE.  See the
   GNU Lesser General Public License for more details.
   
   Cite this work as:
   * C. Bannwarth, E. Caldeweyher, S. Ehlert, A. Hansen, P. Pracht,
     J. Seibert, S. Spicher, S. Grimme, WIREs Comput. Mol. Sci., 2020, 11,
     e01493. DOI: 10.1002/wcms.1493
   
   for GFN2-xTB:
   * C. Bannwarth, S. Ehlert and S. Grimme., J. Chem. Theory Comput., 2019,
     15, 1652-1671. DOI: 10.1021/acs.jctc.8b01176
   for GFN1-xTB:
   * S. Grimme, C. Bannwarth, P. Shushkov, J. Chem. Theory Comput., 2017,
     13, 1989-2009. DOI: 10.1021/acs.jctc.7b00118
   for GFN0-xTB:
   * P. Pracht, E. Caldeweyher, S. Ehlert, S. Grimme, ChemRxiv, 2019, preprint.
     DOI: 10.26434/chemrxiv.8326202.v1
   for GFN-FF:
   * S. Spicher and S. Grimme, Angew. Chem. Int. Ed., 2020, 59, 15665-15673.
     DOI: 10.1002/anie.202004239
   
   for ALPB and GBSA implicit solvation:
   * S. Ehlert, M. Stahn, S. Spicher, S. Grimme, J. Chem. Theory Comput.,
     2021, 17, 4250-4261. DOI: 10.1021/acs.jctc.1c00471
   
   for ddCOSMO and CPCM-X implicit solvation:
   * M. Stahn, S. Ehlert, S. Grimme, J. Phys. Chem. A,
     2023, XX, XXXX-XXXX. DOI: 10.1021/acs.jpca.3c04382
   
   for DFT-D4:
   * E. Caldeweyher, C. Bannwarth and S. Grimme, J. Chem. Phys., 2017,
     147, 034112. DOI: 10.1063/1.4993215
   * E. Caldeweyher, S. Ehlert, A. Hansen, H. Neugebauer, S. Spicher,
     C. Bannwarth and S. Grimme, J. Chem. Phys., 2019, 150, 154122.
     DOI: 10.1063/1.5090222
   * E. Caldeweyher, J.-M. Mewes, S. Ehlert and S. Grimme, Phys. Chem. Chem. Phys.
     2020, 22, 8499-8512. DOI: 10.1039/D0CP00502A
   
   for sTDA-xTB:
   * S. Grimme and C. Bannwarth, J. Chem. Phys., 2016, 145, 054103.
     DOI: 10.1063/1.4959605
   
   in the mass-spec context:
   * V. Asgeirsson, C. Bauer and S. Grimme, Chem. Sci., 2017, 8, 4879.
     DOI: 10.1039/c7sc00601b
   * J. Koopman and S. Grimme, ACS Omega 2019, 4, 12, 15120-15133.
     DOI: 10.1021/acsomega.9b02011
   
   for metadynamics refer to:
   * S. Grimme, J. Chem. Theory Comput., 2019, 155, 2847-2862
     DOI: 10.1021/acs.jctc.9b00143
   
   for SPH calculations refer to:
   * S. Spicher and S. Grimme, J. Chem. Theory Comput., 2021, 17, 1701-1714
     DOI: 10.1021/acs.jctc.0c01306
   
   for ONIOM refer to:
   * C. Plett, A. Katbashev, S. Ehlert, S. Grimme, M. Bursch,
     Phys. Chem. Chem. Phys., 2023, 25, 17860-17868. DOI: 10.1039/D3CP02178E
   
   for DIPRO refer to:
   * J. Kohn, N. Gildemeister, S. Grimme, D. Fazzi, A. Hansen,
     J. Chem. Phys., 2023, just accepted.
   
   for PTB refer to:
   * S. Grimme, M. Mueller, A. Hansen, J. Chem. Phys., 2023, 158, 124111.
     DOI: 10.1063/5.0137838
   
   with help from (in alphabetical order)
   P. Atkinson, C. Bannwarth, F. Bohle, G. Brandenburg, E. Caldeweyher
   M. Checinski, S. Dohm, S. Ehlert, S. Ehrlich, I. Gerasimov, C. Hölzer
   A. Katbashev, J. Kohn, J. Koopman, C. Lavigne, S. Lehtola, F. März, M. Müller,
   F. Musil, H. Neugebauer, J. Pisarek, C. Plett, P. Pracht, F. Pultar,
   J. Seibert, P. Shushkov, S. Spicher, M. Stahn, M. Steiner, T. Strunk,
   J. Stückrath, T. Rose, and J. Unsleber
   
 * started run on 2025/07/14 at 11:38:16.002     
   ID    Z sym.   atoms
    1   15 P      1
    2    6 C      2, 5, 9-14, 20, 23
    3    1 H      3, 4, 6-8, 15-19, 21, 22, 24-26

           -------------------------------------------------
          |                Calculation Setup                |
           -------------------------------------------------

          program call               : /home/minenky/programs/xtb/xtb-dist/bin/xtb m1_00_PEt2Ph-PBE0-D3-TZ-uniMM_71.xyz --charge 0 --T --ohess extreme --cycles 5000 --acc 0.01 --iterations 5000
          coordinate file            : m1_00_PEt2Ph-PBE0-D3-TZ-uniMM_71.xyz
          omp threads                :                    12

########################################################################
[WARNING] Please study the warnings concerning your input carefully
-1- prog_main_parseArguments: Unknown option '--T' provided
########################################################################

           -------------------------------------------------
          |                 G F N 2 - x T B                 |
           -------------------------------------------------

        Reference                      10.1021/acs.jctc.8b01176
      * Hamiltonian:
        H0-scaling (s, p, d)           1.850000    2.230000    2.230000
        zeta-weighting                 0.500000
      * Dispersion:
        s8                             2.700000
        a1                             0.520000
        a2                             5.000000
        s9                             5.000000
      * Repulsion:
        kExp                           1.500000    1.000000
        rExp                           1.000000
      * Coulomb:
        alpha                          2.000000
        third order                    shell-resolved
        anisotropic                    true
        a3                             3.000000
        a5                             4.000000
        cn-shift                       1.200000
        cn-exp                         4.000000
        max-rad                        5.000000


          ...................................................
          :                      SETUP                      :
          :.................................................:
          :  # basis functions                  65          :
          :  # atomic orbitals                  64          :
          :  # shells                           38          :
          :  # electrons                        60          :
          :  max. iterations                  5000          :
          :  Hamiltonian                  GFN2-xTB          :
          :  restarted?                      false          :
          :  GBSA solvation                  false          :
          :  PC potential                    false          :
          :  electronic temp.          300.0000000     K    :
          :  accuracy                    0.0100000          :
          :  -> integral cutoff          0.4500000E+02      :
          :  -> integral neglect         0.1000000E-09      :
          :  -> SCF convergence          0.1000000E-07 Eh   :
          :  -> wf. convergence          0.1000000E-05 e    :
          :  Broyden damping             0.4000000          :
          :  net charge                          0          :
          :  unpaired electrons                  0          :
          ...................................................

 iter      E             dE          RMSdq      gap      omega  full diag
   1    -32.0014678 -0.320015E+02  0.367E+00    4.03       0.0  T
   2    -32.0437482 -0.422804E-01  0.220E+00    3.52       1.0  T
   3    -32.0434207  0.327497E-03  0.940E-01    3.22       1.0  T
   4    -32.0450085 -0.158782E-02  0.288E-01    3.23       1.0  T
   5    -32.0460827 -0.107413E-02  0.120E-01    3.28       1.0  T
   6    -32.0463018 -0.219093E-03  0.440E-02    3.27       1.0  T
   7    -32.0463194 -0.176212E-04  0.159E-02    3.28       1.2  T
   8    -32.0463200 -0.569553E-06  0.697E-03    3.28       2.8  T
   9    -32.0463205 -0.550714E-06  0.145E-03    3.28      13.5  T
  10    -32.0463205 -0.241842E-07  0.687E-04    3.28      28.5  T
  11    -32.0463205 -0.763144E-09  0.318E-04    3.28      61.6  T
  12    -32.0463205 -0.776502E-09  0.527E-05    3.28     371.8  T
  13    -32.0463205 -0.467537E-11  0.241E-05    3.28     814.2  T
  14    -32.0463205 -0.188294E-11  0.105E-05    3.28    1876.0  T
  15    -32.0463205 -0.135003E-12  0.323E-06    3.28    6076.5  T
  16    -32.0463205 -0.220268E-12  0.145E-06    3.28   13567.4  T

   *** convergence criteria satisfied after 16 iterations ***

         #    Occupation            Energy/Eh            Energy/eV
      -------------------------------------------------------------
         1        2.0000           -0.6597577             -17.9529
       ...           ...                  ...                  ...
        24        2.0000           -0.4385203             -11.9327
        25        2.0000           -0.4248976             -11.5621
        26        2.0000           -0.4188480             -11.3974
        27        2.0000           -0.4052880             -11.0284
        28        2.0000           -0.3989505             -10.8560
        29        2.0000           -0.3975281             -10.8173
        30        2.0000           -0.3548842              -9.6569 (HOMO)
        31                         -0.2343662              -6.3774 (LUMO)
        32                         -0.2232703              -6.0755
        33                         -0.1480993              -4.0300
        34                         -0.1326363              -3.6092
        35                         -0.0916223              -2.4932
       ...                                ...                  ...
        64                          0.8109496              22.0671
      -------------------------------------------------------------
                  HL-Gap            0.1205179 Eh            3.2795 eV
             Fermi-level           -0.2946252 Eh           -8.0172 eV

 SCC (total)                   0 d,  0 h,  0 min,  0.084 sec
 SCC setup                      ...        0 min,  0.000 sec (  0.168%)
 Dispersion                     ...        0 min,  0.000 sec (  0.147%)
 classical contributions        ...        0 min,  0.000 sec (  0.012%)
 integral evaluation            ...        0 min,  0.002 sec (  2.222%)
 iterations                     ...        0 min,  0.080 sec ( 95.268%)
 molecular gradient             ...        0 min,  0.002 sec (  2.075%)
 printout                       ...        0 min,  0.000 sec (  0.090%)

         :::::::::::::::::::::::::::::::::::::::::::::::::::::
         ::                     SUMMARY                     ::
         :::::::::::::::::::::::::::::::::::::::::::::::::::::
         :: total energy             -31.530916212459 Eh    ::
         :: gradient norm              0.058612339597 Eh/a0 ::
         :: HOMO-LUMO gap              3.279460208256 eV    ::
         ::.................................................::
         :: SCC energy               -32.046152498994 Eh    ::
         :: -> isotropic ES            0.004578228414 Eh    ::
         :: -> anisotropic ES          0.005876179313 Eh    ::
         :: -> anisotropic XC          0.022622131319 Eh    ::
         :: -> dispersion             -0.024448132340 Eh    ::
         :: repulsion energy           0.515236286535 Eh    ::
         :: add. restraining           0.000000000000 Eh    ::
         :: total charge              -0.000000000000 e     ::
         :::::::::::::::::::::::::::::::::::::::::::::::::::::

      ----------------------------------------------------------- 
     |                   =====================                   |
     |                        A N C O P T                        |
     |                   =====================                   |
     |               Approximate Normal Coordinate               |
     |                Rational Function Optimizer                |
      ----------------------------------------------------------- 
      ----------------------------------------------------------- 
     |                   =====================                   |
     |                        A N C O P T                        |
     |                   =====================                   |
     |               Approximate Normal Coordinate               |
     |                Rational Function Optimizer                |
      ----------------------------------------------------------- 

          ...................................................
          :                      SETUP                      :
          :.................................................:
          :   optimization level           extreme          :
          :   max. optcycles                  5000          :
          :   ANC micro-cycles                  20          :
          :   degrees of freedom                72          :
          :.................................................:
          :   RF solver                   davidson          :
          :   write xtbopt.log                true          :
          :   linear?                        false          :
          :   energy convergence         0.5000000E-07 Eh   :
          :   grad. convergence          0.5000000E-04 Eh/α :
          :   maxmium RF displ.          1.0000000          :
          :   Hlow (freq-cutoff)         0.1000000E-01      :
          :   Hmax (freq-cutoff)         5.0000000          :
          :   S6 in model hess.         20.0000000          :
          ...................................................

generating ANC from model Hessian ...
Using Lindh-Hessian (1995)
 Shifting diagonal of input Hessian by   8.785073883765718E-003
 Lowest  eigenvalues of input Hessian
    0.000000    0.000000    0.000000    0.000000    0.000000    0.000000
    0.010000    0.010053    0.010468    0.011032    0.012674    0.013078
    0.017256    0.018071    0.019044    0.019815    0.021835    0.025800
 Highest eigenvalues
    1.347187    1.534799    1.561945    1.863489    1.965474    1.985714
 

........................................................................
.............................. CYCLE    1 ..............................
........................................................................

 iter      E             dE          RMSdq      gap      omega  full diag
   1    -32.0463205 -0.320463E+02  0.544E-07    3.28       0.0  T
   2    -32.0463205  0.284217E-13  0.299E-07    3.28   65653.5  T
   3    -32.0463205 -0.284217E-13  0.209E-07    3.28   93645.5  T
     SCC iter.                  ...        0 min,  0.071 sec
     gradient                   ...        0 min,  0.002 sec
 * total energy  :   -31.5309162 Eh     change       -0.2131628E-13 Eh
   gradient norm :     0.0586123 Eh/α   predicted     0.0000000E+00 (-100.00%)
   displ. norm   :     0.6409372 α      lambda       -0.2588474E-01
   maximum displ.:     0.3639119 α      in ANC's #12, #7, #9, ...

........................................................................
.............................. CYCLE    2 ..............................
........................................................................

 iter      E             dE          RMSdq      gap      omega  full diag
   1    -32.0633279 -0.320633E+02  0.467E-01    3.51       0.0  T
   2    -32.0636386 -0.310773E-03  0.219E-01    3.55       1.0  T
   3    -32.0636679 -0.292665E-04  0.782E-02    3.59       1.0  T
   4    -32.0636651  0.279506E-05  0.369E-02    3.58       1.0  T
   5    -32.0636795 -0.143787E-04  0.123E-02    3.58       1.6  T
   6    -32.0636819 -0.238616E-05  0.439E-03    3.58       4.5  T
   7    -32.0636819 -0.327264E-07  0.160E-03    3.58      12.2  T
   8    -32.0636819 -0.923389E-08  0.516E-04    3.58      38.0  T
   9    -32.0636819 -0.422431E-08  0.188E-04    3.58     104.4  T
  10    -32.0636819 -0.239481E-09  0.739E-05    3.58     265.2  T
  11    -32.0636819 -0.250893E-10  0.327E-05    3.58     599.1  T
  12    -32.0636819 -0.714806E-11  0.128E-05    3.58    1537.0  T
  13    -32.0636819 -0.220268E-12  0.478E-06    3.58    4103.1  T
  14    -32.0636819 -0.923706E-13  0.120E-06    3.58   16389.4  T
     SCC iter.                  ...        0 min,  0.074 sec
     gradient                   ...        0 min,  0.002 sec
 * total energy  :   -31.5456699 Eh     change       -0.1475370E-01 Eh
   gradient norm :     0.0178746 Eh/α   predicted    -0.1825911E-01 (  23.76%)
   displ. norm   :     0.4374449 α      lambda       -0.4790748E-02
   maximum displ.:     0.2534078 α      in ANC's #6, #10, #12, ...

........................................................................
.............................. CYCLE    3 ..............................
........................................................................

 iter      E             dE          RMSdq      gap      omega  full diag
   1    -32.0671589 -0.320672E+02  0.190E-01    3.55       0.0  T
   2    -32.0671709 -0.120221E-04  0.108E-01    3.54       1.0  T
   3    -32.0671713 -0.382383E-06  0.186E-02    3.54       1.1  T
   4    -32.0671723 -0.102475E-05  0.496E-03    3.54       4.0  T
   5    -32.0671725 -0.190244E-06  0.201E-03    3.54       9.8  T
   6    -32.0671725 -0.141135E-07  0.933E-04    3.54      21.0  T
   7    -32.0671725 -0.783780E-08  0.357E-04    3.54      55.0  T
   8    -32.0671725 -0.115569E-08  0.134E-04    3.54     146.3  T
   9    -32.0671725 -0.521894E-10  0.682E-05    3.54     287.4  T
  10    -32.0671725 -0.389520E-10  0.199E-05    3.54     987.7  T
  11    -32.0671725 -0.216716E-11  0.888E-06    3.54    2209.0  T
  12    -32.0671725 -0.468958E-12  0.485E-06    3.54    4042.0  T
     SCC iter.                  ...        0 min,  0.078 sec
     gradient                   ...        0 min,  0.002 sec
 * total energy  :   -31.5491947 Eh     change       -0.3524826E-02 Eh
   gradient norm :     0.0094403 Eh/α   predicted    -0.2853761E-02 ( -19.04%)
   displ. norm   :     0.4821922 α      lambda       -0.2843680E-02
   maximum displ.:     0.2874359 α      in ANC's #6, #10, #4, ...

........................................................................
.............................. CYCLE    4 ..............................
........................................................................

 iter      E             dE          RMSdq      gap      omega  full diag
   1    -32.0682683 -0.320683E+02  0.186E-01    3.57       0.0  T
   2    -32.0682807 -0.123954E-04  0.106E-01    3.58       1.0  T
   3    -32.0682800  0.691184E-06  0.192E-02    3.59       1.0  T
   4    -32.0682813 -0.134468E-05  0.108E-02    3.59       1.8  T
   5    -32.0682826 -0.121491E-05  0.285E-03    3.59       6.9  T
   6    -32.0682827 -0.148865E-06  0.107E-03    3.59      18.4  T
   7    -32.0682827 -0.219470E-08  0.459E-04    3.59      42.8  T
   8    -32.0682827 -0.753452E-09  0.146E-04    3.59     134.0  T
   9    -32.0682827 -0.349367E-09  0.551E-05    3.59     355.8  T
  10    -32.0682827 -0.101679E-10  0.278E-05    3.59     705.1  T
  11    -32.0682827 -0.196820E-11  0.662E-06    3.59    2960.6  T
  12    -32.0682827 -0.568434E-13  0.274E-06    3.59    7150.7  T
     SCC iter.                  ...        0 min,  0.078 sec
     gradient                   ...        0 min,  0.002 sec
 * total energy  :   -31.5511755 Eh     change       -0.1980788E-02 Eh
   gradient norm :     0.0075393 Eh/α   predicted    -0.1752432E-02 ( -11.53%)
   displ. norm   :     0.4132743 α      lambda       -0.1243095E-02
   maximum displ.:     0.2601874 α      in ANC's #6, #4, #10, ...

........................................................................
.............................. CYCLE    5 ..............................
........................................................................

 iter      E             dE          RMSdq      gap      omega  full diag
   1    -32.0697199 -0.320697E+02  0.142E-01    3.56       0.0  T
   2    -32.0697228 -0.281549E-05  0.833E-02    3.56       1.0  T
   3    -32.0697220  0.731267E-06  0.875E-03    3.55       2.2  T
   4    -32.0697230 -0.985831E-06  0.458E-03    3.56       4.3  T
   5    -32.0697233 -0.334470E-06  0.171E-03    3.56      11.5  T
   6    -32.0697234 -0.726103E-08  0.600E-04    3.56      32.7  T
   7    -32.0697234 -0.333996E-08  0.237E-04    3.56      82.7  T
   8    -32.0697234 -0.311864E-09  0.937E-05    3.56     209.3  T
   9    -32.0697234 -0.100812E-09  0.333E-05    3.56     588.3  T
  10    -32.0697234 -0.637357E-11  0.160E-05    3.56    1229.5  T
  11    -32.0697234 -0.133582E-11  0.596E-06    3.56    3288.6  T
  12    -32.0697234 -0.149214E-12  0.200E-06    3.56    9789.0  T
     SCC iter.                  ...        0 min,  0.076 sec
     gradient                   ...        0 min,  0.002 sec
 * total energy  :   -31.5520554 Eh     change       -0.8798387E-03 Eh
   gradient norm :     0.0063841 Eh/α   predicted    -0.7277058E-03 ( -17.29%)
   displ. norm   :     0.3341726 α      lambda       -0.6097949E-03
   maximum displ.:     0.2044888 α      in ANC's #4, #6, #3, ...

........................................................................
.............................. CYCLE    6 ..............................
........................................................................

 iter      E             dE          RMSdq      gap      omega  full diag
   1    -32.0710956 -0.320711E+02  0.133E-01    3.56       0.0  T
   2    -32.0710981 -0.243228E-05  0.764E-02    3.56       1.0  T
   3    -32.0710976  0.411399E-06  0.936E-03    3.57       2.1  T
   4    -32.0710983 -0.621405E-06  0.409E-03    3.57       4.8  T
   5    -32.0710985 -0.218446E-06  0.113E-03    3.57      17.4  T
   6    -32.0710985 -0.114825E-07  0.502E-04    3.56      39.0  T
   7    -32.0710985 -0.296417E-09  0.147E-04    3.56     133.2  T
   8    -32.0710985 -0.130150E-09  0.554E-05    3.56     353.8  T
   9    -32.0710985 -0.115890E-10  0.242E-05    3.56     810.8  T
  10    -32.0710985 -0.325429E-11  0.130E-05    3.56    1514.4  T
  11    -32.0710985 -0.108713E-11  0.437E-06    3.56    4492.9  T
  12    -32.0710985 -0.113687E-12  0.173E-06    3.56   11357.4  T
     SCC iter.                  ...        0 min,  0.077 sec
     gradient                   ...        0 min,  0.002 sec
 * total energy  :   -31.5525094 Eh     change       -0.4540589E-03 Eh
   gradient norm :     0.0046347 Eh/α   predicted    -0.3389460E-03 ( -25.35%)
   displ. norm   :     0.3087869 α      lambda       -0.4117365E-03
   maximum displ.:     0.2096703 α      in ANC's #4, #6, #3, ...

........................................................................
.............................. CYCLE    7 ..............................
........................................................................

 iter      E             dE          RMSdq      gap      omega  full diag
   1    -32.0726070 -0.320726E+02  0.131E-01    3.56       0.0  T
   2    -32.0726097 -0.271832E-05  0.759E-02    3.57       1.0  T
   3    -32.0726095  0.202604E-06  0.984E-03    3.56       2.0  T
   4    -32.0726100 -0.475777E-06  0.362E-03    3.56       5.4  T
   5    -32.0726101 -0.102011E-06  0.119E-03    3.56      16.5  T
   6    -32.0726101 -0.213853E-07  0.551E-04    3.56      35.6  T
   7    -32.0726101 -0.663341E-09  0.119E-04    3.56     164.4  T
   8    -32.0726101 -0.115875E-09  0.398E-05    3.56     492.7  T
   9    -32.0726101 -0.265743E-11  0.191E-05    3.56    1029.2  T
  10    -32.0726101 -0.251532E-11  0.980E-06    3.56    2000.7  T
  11    -32.0726101 -0.866862E-12  0.262E-06    3.56    7483.7  T
     SCC iter.                  ...        0 min,  0.077 sec
     gradient                   ...        0 min,  0.002 sec
 * total energy  :   -31.5528298 Eh     change       -0.3203937E-03 Eh
   gradient norm :     0.0036595 Eh/α   predicted    -0.2255026E-03 ( -29.62%)
   displ. norm   :     0.3107752 α      lambda       -0.3197652E-03
   maximum displ.:     0.2163344 α      in ANC's #4, #3, #2, ...

........................................................................
.............................. CYCLE    8 ..............................
........................................................................

 iter      E             dE          RMSdq      gap      omega  full diag
   1    -32.0732370 -0.320732E+02  0.138E-01    3.57       0.0  T
   2    -32.0732396 -0.264268E-05  0.802E-02    3.57       1.0  T
   3    -32.0732394  0.213445E-06  0.962E-03    3.57       2.0  T
   4    -32.0732399 -0.484989E-06  0.367E-03    3.57       5.3  T
   5    -32.0732400 -0.929006E-07  0.125E-03    3.57      15.7  T
   6    -32.0732400 -0.238536E-07  0.597E-04    3.57      32.9  T
   7    -32.0732400 -0.700133E-09  0.108E-04    3.57     182.3  T
   8    -32.0732400 -0.877804E-10  0.278E-05    3.57     704.5  T
   9    -32.0732400 -0.611067E-12  0.148E-05    3.57    1322.7  T
  10    -32.0732400 -0.923706E-12  0.604E-06    3.57    3249.5  T
  11    -32.0732400 -0.397904E-12  0.186E-06    3.57   10552.8  T
     SCC iter.                  ...        0 min,  0.074 sec
     gradient                   ...        0 min,  0.002 sec
 * total energy  :   -31.5530808 Eh     change       -0.2509440E-03 Eh
   gradient norm :     0.0044708 Eh/α   predicted    -0.1753307E-03 ( -30.13%)
   displ. norm   :     0.2967312 α      lambda       -0.2389563E-03
   maximum displ.:     0.2040255 α      in ANC's #4, #3, #2, ...

........................................................................
.............................. CYCLE    9 ..............................
........................................................................

 iter      E             dE          RMSdq      gap      omega  full diag
   1    -32.0733881 -0.320734E+02  0.133E-01    3.58       0.0  T
   2    -32.0733899 -0.183359E-05  0.774E-02    3.58       1.0  T
   3    -32.0733898  0.135317E-06  0.761E-03    3.58       2.6  T
   4    -32.0733901 -0.332304E-06  0.322E-03    3.58       6.1  T
   5    -32.0733902 -0.837574E-07  0.126E-03    3.58      15.6  T
   6    -32.0733902 -0.205888E-07  0.606E-04    3.58      32.4  T
   7    -32.0733902 -0.492676E-09  0.106E-04    3.58     185.3  T
   8    -32.0733902 -0.164725E-09  0.383E-05    3.58     512.6  T
   9    -32.0733902 -0.211671E-10  0.152E-05    3.58    1290.3  T
  10    -32.0733902 -0.923706E-12  0.598E-06    3.58    3278.1  T
  11    -32.0733902 -0.106581E-12  0.135E-06    3.58   14475.8  T
     SCC iter.                  ...        0 min,  0.074 sec
     gradient                   ...        0 min,  0.002 sec
 * total energy  :   -31.5532669 Eh     change       -0.1861065E-03 Eh
   gradient norm :     0.0047106 Eh/α   predicted    -0.1299988E-03 ( -30.15%)
   displ. norm   :     0.2910453 α      lambda       -0.1907375E-03
   maximum displ.:     0.1948658 α      in ANC's #4, #2, #3, ...

........................................................................
.............................. CYCLE   10 ..............................
........................................................................

 iter      E             dE          RMSdq      gap      omega  full diag
   1    -32.0732594 -0.320733E+02  0.133E-01    3.58       0.0  T
   2    -32.0732607 -0.125779E-05  0.777E-02    3.58       1.0  T
   3    -32.0732604  0.305485E-06  0.685E-03    3.59       2.9  T
   4    -32.0732608 -0.428212E-06  0.319E-03    3.59       6.1  T
   5    -32.0732609 -0.132363E-06  0.107E-03    3.59      18.4  T
   6    -32.0732609 -0.112185E-07  0.559E-04    3.59      35.1  T
   7    -32.0732609 -0.619323E-09  0.111E-04    3.59     176.7  T
   8    -32.0732609 -0.196309E-09  0.394E-05    3.59     498.1  T
   9    -32.0732609 -0.259632E-10  0.130E-05    3.59    1512.0  T
  10    -32.0732609 -0.262901E-12  0.491E-06    3.59    3991.0  T
  11    -32.0732609 -0.710543E-13  0.150E-06    3.59   13073.3  T
     SCC iter.                  ...        0 min,  0.074 sec
     gradient                   ...        0 min,  0.002 sec
 * total energy  :   -31.5534155 Eh     change       -0.1486514E-03 Eh
   gradient norm :     0.0040731 Eh/α   predicted    -0.1034489E-03 ( -30.41%)
   displ. norm   :     0.3413660 α      lambda       -0.1945650E-03
   maximum displ.:     0.2199597 α      in ANC's #4, #3, #2, ...

........................................................................
.............................. CYCLE   11 ..............................
........................................................................

 iter      E             dE          RMSdq      gap      omega  full diag
   1    -32.0728377 -0.320728E+02  0.156E-01    3.59       0.0  T
   2    -32.0728390 -0.131565E-05  0.909E-02    3.59       1.0  T
   3    -32.0728385  0.427473E-06  0.744E-03    3.59       2.6  T
   4    -32.0728391 -0.582888E-06  0.363E-03    3.59       5.4  T
   5    -32.0728393 -0.180368E-06  0.106E-03    3.59      18.5  T
   6    -32.0728393 -0.719094E-08  0.609E-04    3.59      32.2  T
   7    -32.0728393 -0.973849E-09  0.108E-04    3.59     181.4  T
   8    -32.0728393 -0.220240E-09  0.362E-05    3.59     542.2  T
   9    -32.0728393 -0.208686E-10  0.119E-05    3.59    1643.8  T
  10    -32.0728393 -0.127898E-12  0.430E-06    3.59    4563.7  T
  11    -32.0728393 -0.113687E-12  0.158E-06    3.59   12377.6  T
     SCC iter.                  ...        0 min,  0.073 sec
     gradient                   ...        0 min,  0.002 sec
 * total energy  :   -31.5535665 Eh     change       -0.1509941E-03 Eh
   gradient norm :     0.0037785 Eh/α   predicted    -0.1086197E-03 ( -28.06%)
   displ. norm   :     0.4012338 α      lambda       -0.2240149E-03
   maximum displ.:     0.2361957 α      in ANC's #4, #3, #2, ...

........................................................................
.............................. CYCLE   12 ..............................
........................................................................

 iter      E             dE          RMSdq      gap      omega  full diag
   1    -32.0721472 -0.320721E+02  0.182E-01    3.59       0.0  T
   2    -32.0721487 -0.156652E-05  0.106E-01    3.60       1.0  T
   3    -32.0721482  0.593716E-06  0.799E-03    3.60       2.5  T
   4    -32.0721490 -0.822837E-06  0.387E-03    3.60       5.1  T
   5    -32.0721492 -0.196974E-06  0.110E-03    3.60      17.8  T
   6    -32.0721492 -0.400228E-08  0.692E-04    3.60      28.3  T
   7    -32.0721492 -0.165328E-08  0.151E-04    3.60     129.9  T
   8    -32.0721492 -0.204835E-09  0.563E-05    3.60     348.4  T
   9    -32.0721492 -0.767670E-10  0.129E-05    3.60    1514.7  T
  10    -32.0721492 -0.468958E-12  0.402E-06    3.60    4874.5  T
  11    -32.0721492 -0.142109E-13  0.166E-06    3.60   11801.3  T
     SCC iter.                  ...        0 min,  0.074 sec
     gradient                   ...        0 min,  0.002 sec
 * total energy  :   -31.5537428 Eh     change       -0.1762603E-03 Eh
   gradient norm :     0.0055711 Eh/α   predicted    -0.1300410E-03 ( -26.22%)
   displ. norm   :     0.4320085 α      lambda       -0.2842057E-03
   maximum displ.:     0.2471013 α      in ANC's #3, #4, #2, ...

........................................................................
.............................. CYCLE   13 ..............................
........................................................................

 iter      E             dE          RMSdq      gap      omega  full diag
   1    -32.0719716 -0.320720E+02  0.188E-01    3.61       0.0  T
   2    -32.0719731 -0.155252E-05  0.110E-01    3.61       1.0  T
   3    -32.0719725  0.610069E-06  0.797E-03    3.61       2.5  T
   4    -32.0719734 -0.917216E-06  0.390E-03    3.61       5.0  T
   5    -32.0719736 -0.168656E-06  0.114E-03    3.61      17.3  T
   6    -32.0719736 -0.166591E-08  0.686E-04    3.61      28.6  T
   7    -32.0719736 -0.221813E-08  0.165E-04    3.61     119.2  T
   8    -32.0719736 -0.154671E-09  0.493E-05    3.61     397.7  T
   9    -32.0719736 -0.631815E-10  0.144E-05    3.61    1364.4  T
  10    -32.0719736 -0.738964E-12  0.465E-06    3.61    4214.0  T
  11    -32.0719736 -0.213163E-12  0.185E-06    3.61   10576.0  T
     SCC iter.                  ...        0 min,  0.073 sec
     gradient                   ...        0 min,  0.002 sec
 * total energy  :   -31.5539558 Eh     change       -0.2130370E-03 Eh
   gradient norm :     0.0083703 Eh/α   predicted    -0.1686241E-03 ( -20.85%)
   displ. norm   :     0.3936542 α      lambda       -0.3289973E-03
   maximum displ.:     0.2507346 α      in ANC's #3, #2, #4, ...

........................................................................
.............................. CYCLE   14 ..............................
........................................................................

 iter      E             dE          RMSdq      gap      omega  full diag
   1    -32.0725384 -0.320725E+02  0.165E-01    3.61       0.0  T
   2    -32.0725397 -0.126409E-05  0.967E-02    3.61       1.0  T
   3    -32.0725393  0.404452E-06  0.781E-03    3.61       2.5  T
   4    -32.0725400 -0.685577E-06  0.321E-03    3.61       6.1  T
   5    -32.0725400 -0.686712E-07  0.140E-03    3.61      14.0  T
   6    -32.0725401 -0.140766E-07  0.697E-04    3.61      28.2  T
   7    -32.0725401 -0.118898E-08  0.145E-04    3.61     135.2  T
   8    -32.0725401 -0.245983E-09  0.449E-05    3.61     437.0  T
   9    -32.0725401 -0.326352E-10  0.163E-05    3.61    1200.3  T
  10    -32.0725401 -0.497380E-12  0.683E-06    3.61    2871.0  T
  11    -32.0725401 -0.291323E-12  0.219E-06    3.61    8972.3  T
     SCC iter.                  ...        0 min,  0.073 sec
     gradient                   ...        0 min,  0.002 sec
 * total energy  :   -31.5542074 Eh     change       -0.2516146E-03 Eh
   gradient norm :     0.0080561 Eh/α   predicted    -0.1899902E-03 ( -24.49%)
   displ. norm   :     0.3549047 α      lambda       -0.3516589E-03
   maximum displ.:     0.2351349 α      in ANC's #3, #2, #4, ...

........................................................................
.............................. CYCLE   15 ..............................
........................................................................

 iter      E             dE          RMSdq      gap      omega  full diag
   1    -32.0742481 -0.320742E+02  0.148E-01    3.62       0.0  T
   2    -32.0742500 -0.191830E-05  0.862E-02    3.62       1.0  T
   3    -32.0742496  0.405769E-06  0.950E-03    3.62       2.1  T
   4    -32.0742503 -0.734409E-06  0.332E-03    3.63       5.9  T
   5    -32.0742504 -0.466906E-07  0.192E-03    3.62      10.2  T
   6    -32.0742504 -0.310314E-07  0.710E-04    3.62      27.6  T
   7    -32.0742504 -0.836202E-09  0.164E-04    3.62     119.3  T
   8    -32.0742504 -0.532694E-10  0.753E-05    3.62     260.3  T
   9    -32.0742504 -0.704077E-10  0.262E-05    3.62     748.7  T
  10    -32.0742504 -0.526512E-11  0.110E-05    3.62    1782.3  T
  11    -32.0742504 -0.262901E-12  0.226E-06    3.62    8686.1  T
  12    -32.0742504  0.426326E-13  0.899E-07    3.62   21803.0  T
     SCC iter.                  ...        0 min,  0.074 sec
     gradient                   ...        0 min,  0.002 sec
 * total energy  :   -31.5544492 Eh     change       -0.2418194E-03 Eh
   gradient norm :     0.0054498 Eh/α   predicted    -0.1979769E-03 ( -18.13%)
   displ. norm   :     0.5554967 α      lambda       -0.3026319E-03
   maximum displ.:     0.3436187 α      in ANC's #3, #2, #4, ...

........................................................................
.............................. CYCLE   16 ..............................
........................................................................

 iter      E             dE          RMSdq      gap      omega  full diag
   1    -32.0658225 -0.320658E+02  0.251E-01    3.60       0.0  T
   2    -32.0658294 -0.683506E-05  0.147E-01    3.61       1.0  T
   3    -32.0658273  0.205902E-05  0.176E-02    3.60       1.1  T
   4    -32.0658303 -0.300896E-05  0.543E-03    3.61       3.6  T
   5    -32.0658305 -0.224440E-06  0.250E-03    3.61       7.8  T
   6    -32.0658306 -0.760543E-07  0.122E-03    3.61      16.0  T
   7    -32.0658306 -0.539580E-08  0.404E-04    3.61      48.5  T
   8    -32.0658306 -0.401918E-09  0.936E-05    3.61     209.6  T
   9    -32.0658306 -0.176321E-09  0.286E-05    3.61     685.3  T
  10    -32.0658306 -0.201794E-11  0.118E-05    3.61    1663.2  T
  11    -32.0658306 -0.186162E-11  0.415E-06    3.61    4728.8  T
  12    -32.0658306 -0.994760E-13  0.141E-06    3.61   13901.1  T
     SCC iter.                  ...        0 min,  0.078 sec
     gradient                   ...        0 min,  0.002 sec
 * total energy  :   -31.5545148 Eh     change       -0.6556856E-04 Eh
   gradient norm :     0.0123605 Eh/α   predicted    -0.1980093E-03 ( 201.99%)
   displ. norm   :     0.1508960 α      lambda       -0.4670314E-03
   maximum displ.:     0.0902324 α      in ANC's #8, #4, #2, ...

........................................................................
.............................. CYCLE   17 ..............................
........................................................................

 iter      E             dE          RMSdq      gap      omega  full diag
   1    -32.0770233 -0.320770E+02  0.622E-02    3.63       0.0  T
   2    -32.0770269 -0.360233E-05  0.357E-02    3.62       1.0  T
   3    -32.0770265  0.452602E-06  0.113E-02    3.62       1.7  T
   4    -32.0770273 -0.852110E-06  0.368E-03    3.62       5.3  T
   5    -32.0770274 -0.908368E-07  0.165E-03    3.62      11.9  T
   6    -32.0770274 -0.176484E-07  0.615E-04    3.62      31.9  T
   7    -32.0770274 -0.433680E-08  0.268E-04    3.62      73.2  T
   8    -32.0770274 -0.134698E-09  0.830E-05    3.62     236.2  T
   9    -32.0770274 -0.670326E-10  0.287E-05    3.62     682.7  T
  10    -32.0770274 -0.451195E-11  0.153E-05    3.62    1281.3  T
  11    -32.0770274 -0.141398E-11  0.455E-06    3.62    4312.7  T
  12    -32.0770274 -0.241585E-12  0.124E-06    3.62   15833.4  T
     SCC iter.                  ...        0 min,  0.076 sec
     gradient                   ...        0 min,  0.002 sec
 * total energy  :   -31.5546629 Eh     change       -0.1480595E-03 Eh
   gradient norm :     0.0103596 Eh/α   predicted    -0.2388331E-03 (  61.31%)
   displ. norm   :     0.1351704 α      lambda       -0.2639246E-03
   maximum displ.:     0.0772483 α      in ANC's #2, #4, #3, ...

........................................................................
.............................. CYCLE   18 ..............................
........................................................................

 iter      E             dE          RMSdq      gap      omega  full diag
   1    -32.0762850 -0.320763E+02  0.738E-02    3.64       0.0  T
   2    -32.0762857 -0.741069E-06  0.432E-02    3.64       1.0  T
   3    -32.0762848  0.908113E-06  0.810E-03    3.64       2.4  T
   4    -32.0762859 -0.111221E-05  0.212E-03    3.64       9.3  T
   5    -32.0762860 -0.506486E-07  0.904E-04    3.64      21.7  T
   6    -32.0762860 -0.109658E-07  0.355E-04    3.64      55.2  T
   7    -32.0762860 -0.968470E-10  0.109E-04    3.64     180.0  T
   8    -32.0762860 -0.174879E-09  0.435E-05    3.64     450.6  T
   9    -32.0762860 -0.240661E-10  0.110E-05    3.64    1776.4  T
  10    -32.0762860 -0.945022E-12  0.563E-06    3.64    3482.0  T
  11    -32.0762860 -0.163425E-12  0.235E-06    3.64    8357.9  T
     SCC iter.                  ...        0 min,  0.077 sec
     gradient                   ...        0 min,  0.002 sec
 * total energy  :   -31.5547895 Eh     change       -0.1266042E-03 Eh
   gradient norm :     0.0054590 Eh/α   predicted    -0.1343743E-03 (   6.14%)
   displ. norm   :     0.2965946 α      lambda       -0.1653490E-03
   maximum displ.:     0.1707325 α      in ANC's #2, #3, #4, ...

........................................................................
.............................. CYCLE   19 ..............................
........................................................................

 iter      E             dE          RMSdq      gap      omega  full diag
   1    -32.0722913 -0.320723E+02  0.143E-01    3.63       0.0  T
   2    -32.0722927 -0.142218E-05  0.835E-02    3.63       1.0  T
   3    -32.0722920  0.718620E-06  0.836E-03    3.63       2.3  T
   4    -32.0722930 -0.957307E-06  0.308E-03    3.63       6.4  T
   5    -32.0722931 -0.124373E-06  0.117E-03    3.63      16.8  T
   6    -32.0722931 -0.142826E-07  0.569E-04    3.63      34.5  T
   7    -32.0722931 -0.828088E-09  0.157E-04    3.63     124.8  T
   8    -32.0722931 -0.166558E-09  0.527E-05    3.63     371.8  T
   9    -32.0722931 -0.560263E-10  0.147E-05    3.63    1337.7  T
  10    -32.0722931 -0.270006E-12  0.490E-06    3.63    4005.8  T
  11    -32.0722931 -0.341061E-12  0.210E-06    3.63    9341.4  T
     SCC iter.                  ...        0 min,  0.078 sec
     gradient                   ...        0 min,  0.002 sec
 * total energy  :   -31.5548838 Eh     change       -0.9429421E-04 Eh
   gradient norm :     0.0060681 Eh/α   predicted    -0.8995150E-04 (  -4.61%)
   displ. norm   :     0.2386082 α      lambda       -0.1287832E-03
   maximum displ.:     0.1487995 α      in ANC's #2, #3, #4, ...

........................................................................
.............................. CYCLE   20 ..............................
........................................................................

 iter      E             dE          RMSdq      gap      omega  full diag
   1    -32.0718698 -0.320719E+02  0.116E-01    3.62       0.0  T
   2    -32.0718707 -0.921730E-06  0.682E-02    3.63       1.0  T
   3    -32.0718702  0.477660E-06  0.601E-03    3.63       3.3  T
   4    -32.0718708 -0.564099E-06  0.278E-03    3.63       7.1  T
   5    -32.0718709 -0.116762E-06  0.697E-04    3.63      28.1  T
   6    -32.0718709 -0.162494E-08  0.431E-04    3.63      45.5  T
   7    -32.0718709 -0.574566E-09  0.116E-04    3.63     168.8  T
   8    -32.0718709 -0.554436E-10  0.329E-05    3.63     595.4  T
   9    -32.0718709 -0.197389E-10  0.119E-05    3.63    1646.3  T
  10    -32.0718709 -0.959233E-12  0.434E-06    3.63    4516.1  T
  11    -32.0718709 -0.710543E-13  0.162E-06    3.63   12076.0  T
     SCC iter.                  ...        0 min,  0.077 sec
     gradient                   ...        0 min,  0.002 sec
 * total energy  :   -31.5549596 Eh     change       -0.7579243E-04 Eh
   gradient norm :     0.0061674 Eh/α   predicted    -0.6805916E-04 ( -10.20%)
   displ. norm   :     0.2028296 α      lambda       -0.1667246E-03
   maximum displ.:     0.1397615 α      in ANC's #2, #3, #4, ...
 * RMSD in coord.:     1.0600811 α      energy gain  -0.2404335E-01 Eh

generating ANC from model Hessian ...
Using Lindh-Hessian (1995)
 Shifting diagonal of input Hessian by   9.185340574411543E-003
 Lowest  eigenvalues of input Hessian
    0.000000    0.000000    0.000000    0.000000    0.000000    0.000000
    0.010000    0.010186    0.010472    0.011233    0.011949    0.012838
    0.015158    0.017535    0.018030    0.019405    0.022341    0.024173
 Highest eigenvalues
    1.362960    1.552608    1.573350    1.878469    1.984031    2.001238
 

........................................................................
.............................. CYCLE   21 ..............................
........................................................................

 iter      E             dE          RMSdq      gap      omega  full diag
   1    -32.0761552 -0.320762E+02  0.103E-01    3.64       0.0  T
   2    -32.0761563 -0.108990E-05  0.601E-02    3.64       1.0  T
   3    -32.0761556  0.638964E-06  0.741E-03    3.64       2.6  T
   4    -32.0761565 -0.847370E-06  0.209E-03    3.64       9.4  T
   5    -32.0761565 -0.457681E-07  0.884E-04    3.64      22.2  T
   6    -32.0761565 -0.537325E-08  0.411E-04    3.64      47.7  T
   7    -32.0761565 -0.142335E-08  0.162E-04    3.64     121.0  T
   8    -32.0761565 -0.551879E-10  0.505E-05    3.64     388.4  T
   9    -32.0761565 -0.277183E-10  0.182E-05    3.64    1077.7  T
  10    -32.0761565 -0.165556E-11  0.779E-06    3.64    2517.6  T
  11    -32.0761565 -0.454747E-12  0.199E-06    3.64    9873.9  T
     SCC iter.                  ...        0 min,  0.074 sec
     gradient                   ...        0 min,  0.002 sec
 * total energy  :   -31.5550350 Eh     change       -0.7541414E-04 Eh
   gradient norm :     0.0055862 Eh/α   predicted     0.0000000E+00 (-100.00%)
   displ. norm   :     0.0497323 α      lambda       -0.7839897E-04
   maximum displ.:     0.0287472 α      in ANC's #1, #2, #5, ...

........................................................................
.............................. CYCLE   22 ..............................
........................................................................

 iter      E             dE          RMSdq      gap      omega  full diag
   1    -32.0763051 -0.320763E+02  0.257E-02    3.65       0.0  T
   2    -32.0763053 -0.174037E-06  0.152E-02    3.65       1.3  T
   3    -32.0763053  0.669508E-08  0.218E-03    3.65       9.0  T
   4    -32.0763053 -0.306318E-07  0.660E-04    3.65      29.7  T
   5    -32.0763053 -0.639638E-09  0.374E-04    3.65      52.4  T
   6    -32.0763053 -0.889564E-09  0.160E-04    3.65     122.5  T
   7    -32.0763053 -0.765539E-10  0.532E-05    3.65     368.7  T
   8    -32.0763053 -0.219345E-10  0.151E-05    3.65    1299.9  T
   9    -32.0763053 -0.145661E-11  0.812E-06    3.65    2414.4  T
  10    -32.0763053 -0.405009E-12  0.214E-06    3.65    9161.7  T
     SCC iter.                  ...        0 min,  0.074 sec
     gradient                   ...        0 min,  0.002 sec
 * total energy  :   -31.5550911 Eh     change       -0.5615180E-04 Eh
   gradient norm :     0.0016150 Eh/α   predicted    -0.3937555E-04 ( -29.88%)
   displ. norm   :     0.1258057 α      lambda       -0.5008962E-04
   maximum displ.:     0.0802262 α      in ANC's #1, #2, #5, ...

........................................................................
.............................. CYCLE   23 ..............................
........................................................................

 iter      E             dE          RMSdq      gap      omega  full diag
   1    -32.0760769 -0.320761E+02  0.522E-02    3.65       0.0  T
   2    -32.0760771 -0.279321E-06  0.305E-02    3.65       1.0  T
   3    -32.0760772 -0.219919E-07  0.233E-03    3.65       8.4  T
   4    -32.0760772 -0.220733E-07  0.723E-04    3.65      27.1  T
   5    -32.0760772 -0.228894E-08  0.429E-04    3.65      45.7  T
   6    -32.0760772 -0.864006E-09  0.174E-04    3.65     112.5  T
   7    -32.0760772 -0.155218E-09  0.650E-05    3.65     301.9  T
   8    -32.0760772 -0.568647E-10  0.201E-05    3.65     977.3  T
   9    -32.0760772 -0.112976E-11  0.718E-06    3.65    2733.0  T
  10    -32.0760772 -0.461853E-12  0.318E-06    3.65    6164.3  T
     SCC iter.                  ...        0 min,  0.074 sec
     gradient                   ...        0 min,  0.002 sec
 * total energy  :   -31.5551355 Eh     change       -0.4434452E-04 Eh
   gradient norm :     0.0033109 Eh/α   predicted    -0.2522721E-04 ( -43.11%)
   displ. norm   :     0.0700432 α      lambda       -0.3013369E-04
   maximum displ.:     0.0472728 α      in ANC's #1, #2, #5, ...

........................................................................
.............................. CYCLE   24 ..............................
........................................................................

 iter      E             dE          RMSdq      gap      omega  full diag
   1    -32.0759591 -0.320760E+02  0.289E-02    3.65       0.0  T
   2    -32.0759592 -0.630369E-07  0.168E-02    3.65       1.2  T
   3    -32.0759592  0.864311E-09  0.140E-03    3.65      14.0  T
   4    -32.0759592 -0.107369E-07  0.545E-04    3.65      36.0  T
   5    -32.0759592 -0.228613E-08  0.170E-04    3.65     115.2  T
   6    -32.0759592 -0.238224E-09  0.868E-05    3.65     225.8  T
   7    -32.0759592 -0.237890E-10  0.223E-05    3.65     881.2  T
   8    -32.0759592 -0.653699E-12  0.954E-06    3.65    2055.3  T
   9    -32.0759592 -0.116529E-11  0.313E-06    3.65    6266.1  T
     SCC iter.                  ...        0 min,  0.074 sec
     gradient                   ...        0 min,  0.002 sec
 * total energy  :   -31.5551639 Eh     change       -0.2843553E-04 Eh
   gradient norm :     0.0030593 Eh/α   predicted    -0.1514318E-04 ( -46.75%)
   displ. norm   :     0.1729664 α      lambda       -0.7808879E-04
   maximum displ.:     0.1120996 α      in ANC's #1, #2, #5, ...

........................................................................
.............................. CYCLE   25 ..............................
........................................................................

 iter      E             dE          RMSdq      gap      omega  full diag
   1    -32.0758146 -0.320758E+02  0.683E-02    3.64       0.0  T
   2    -32.0758149 -0.340544E-06  0.399E-02    3.64       1.0  T
   3    -32.0758149  0.247795E-07  0.295E-03    3.64       6.6  T
   4    -32.0758149 -0.633793E-07  0.143E-03    3.64      13.7  T
   5    -32.0758150 -0.270963E-07  0.455E-04    3.64      43.1  T
   6    -32.0758150 -0.156828E-08  0.203E-04    3.64      96.5  T
   7    -32.0758150 -0.226521E-10  0.429E-05    3.64     457.2  T
   8    -32.0758150 -0.140830E-10  0.232E-05    3.64     843.6  T
   9    -32.0758150 -0.565592E-11  0.940E-06    3.64    2086.3  T
  10    -32.0758150 -0.277112E-12  0.226E-06    3.64    8666.7  T
     SCC iter.                  ...        0 min,  0.074 sec
     gradient                   ...        0 min,  0.002 sec
 * total energy  :   -31.5552311 Eh     change       -0.6718733E-04 Eh
   gradient norm :     0.0013600 Eh/α   predicted    -0.4021630E-04 ( -40.14%)
   displ. norm   :     0.4033338 α      lambda       -0.9309391E-04
   maximum displ.:     0.2652681 α      in ANC's #1, #2, #5, ...

........................................................................
.............................. CYCLE   26 ..............................
........................................................................

 iter      E             dE          RMSdq      gap      omega  full diag
   1    -32.0747194 -0.320747E+02  0.161E-01    3.63       0.0  T
   2    -32.0747212 -0.180230E-05  0.937E-02    3.64       1.0  T
   3    -32.0747208  0.412099E-06  0.821E-03    3.64       2.4  T
   4    -32.0747214 -0.649127E-06  0.348E-03    3.64       5.6  T
   5    -32.0747216 -0.156080E-06  0.122E-03    3.64      16.1  T
   6    -32.0747216 -0.149718E-07  0.478E-04    3.64      41.1  T
   7    -32.0747216 -0.362732E-10  0.111E-04    3.64     176.9  T
   8    -32.0747216 -0.113829E-09  0.541E-05    3.64     362.2  T
   9    -32.0747216 -0.418652E-10  0.160E-05    3.64    1229.0  T
  10    -32.0747216 -0.902389E-12  0.517E-06    3.64    3789.8  T
  11    -32.0747216 -0.149214E-12  0.215E-06    3.64    9103.5  T
     SCC iter.                  ...        0 min,  0.075 sec
     gradient                   ...        0 min,  0.002 sec
 * total energy  :   -31.5553289 Eh     change       -0.9783420E-04 Eh
   gradient norm :     0.0034699 Eh/α   predicted    -0.4991519E-04 ( -48.98%)
   displ. norm   :     0.1621833 α      lambda       -0.4865653E-04
   maximum displ.:     0.1124465 α      in ANC's #1, #2, #3, ...

........................................................................
.............................. CYCLE   27 ..............................
........................................................................

 iter      E             dE          RMSdq      gap      omega  full diag
   1    -32.0752136 -0.320752E+02  0.659E-02    3.63       0.0  T
   2    -32.0752139 -0.273944E-06  0.386E-02    3.63       1.0  T
   3    -32.0752138  0.112175E-06  0.343E-03    3.63       5.7  T
   4    -32.0752139 -0.143305E-06  0.153E-03    3.63      12.8  T
   5    -32.0752140 -0.380395E-07  0.475E-04    3.63      41.3  T
   6    -32.0752140 -0.159110E-08  0.200E-04    3.63      97.9  T
   7    -32.0752140 -0.319744E-10  0.549E-05    3.63     357.4  T
   8    -32.0752140 -0.315836E-10  0.194E-05    3.63    1008.9  T
   9    -32.0752140 -0.539302E-11  0.630E-06    3.63    3114.1  T
  10    -32.0752140 -0.298428E-12  0.247E-06    3.63    7931.9  T
     SCC iter.                  ...        0 min,  0.074 sec
     gradient                   ...        0 min,  0.002 sec
 * total energy  :   -31.5553726 Eh     change       -0.4371203E-04 Eh
   gradient norm :     0.0030376 Eh/α   predicted    -0.2496948E-04 ( -42.88%)
   displ. norm   :     0.1957005 α      lambda       -0.6831703E-04
   maximum displ.:     0.1407237 α      in ANC's #1, #2, #3, ...

........................................................................
.............................. CYCLE   28 ..............................
........................................................................

 iter      E             dE          RMSdq      gap      omega  full diag
   1    -32.0764036 -0.320764E+02  0.820E-02    3.64       0.0  T
   2    -32.0764040 -0.409406E-06  0.481E-02    3.64       1.0  T
   3    -32.0764037  0.274672E-06  0.489E-03    3.64       4.0  T
   4    -32.0764041 -0.350854E-06  0.171E-03    3.64      11.5  T
   5    -32.0764041 -0.422627E-07  0.619E-04    3.64      31.7  T
   6    -32.0764041 -0.241190E-08  0.259E-04    3.64      75.7  T
   7    -32.0764041 -0.127173E-09  0.868E-05    3.64     226.0  T
   8    -32.0764041 -0.774705E-10  0.246E-05    3.64     796.3  T
   9    -32.0764041 -0.841283E-11  0.915E-06    3.64    2142.9  T
  10    -32.0764041 -0.113687E-12  0.306E-06    3.64    6416.9  T
     SCC iter.                  ...        0 min,  0.074 sec
     gradient                   ...        0 min,  0.004 sec
 * total energy  :   -31.5554316 Eh     change       -0.5897848E-04 Eh
   gradient norm :     0.0015729 Eh/α   predicted    -0.3546926E-04 ( -39.86%)
   displ. norm   :     0.3805089 α      lambda       -0.7361094E-04
   maximum displ.:     0.2802144 α      in ANC's #1, #2, #3, ...

........................................................................
.............................. CYCLE   29 ..............................
........................................................................

 iter      E             dE          RMSdq      gap      omega  full diag
   1    -32.0766676 -0.320767E+02  0.163E-01    3.63       0.0  T
   2    -32.0766691 -0.149045E-05  0.954E-02    3.63       1.0  T
   3    -32.0766684  0.672984E-06  0.841E-03    3.63       2.3  T
   4    -32.0766694 -0.923950E-06  0.324E-03    3.63       6.1  T
   5    -32.0766695 -0.150736E-06  0.112E-03    3.63      17.5  T
   6    -32.0766695 -0.983738E-08  0.482E-04    3.63      40.7  T
   7    -32.0766695 -0.143004E-09  0.144E-04    3.63     136.4  T
   8    -32.0766695 -0.247404E-09  0.448E-05    3.63     437.3  T
   9    -32.0766695 -0.314273E-10  0.173E-05    3.63    1133.7  T
  10    -32.0766695 -0.738964E-12  0.507E-06    3.63    3866.7  T
  11    -32.0766695 -0.710543E-13  0.222E-06    3.63    8849.6  T
     SCC iter.                  ...        0 min,  0.079 sec
     gradient                   ...        0 min,  0.002 sec
 * total energy  :   -31.5555230 Eh     change       -0.9140938E-04 Eh
   gradient norm :     0.0019345 Eh/α   predicted    -0.3917426E-04 ( -57.14%)
   displ. norm   :     0.2927535 α      lambda       -0.5388640E-04
   maximum displ.:     0.2225884 α      in ANC's #1, #2, #3, ...

........................................................................
.............................. CYCLE   30 ..............................
........................................................................

 iter      E             dE          RMSdq      gap      omega  full diag
   1    -32.0767504 -0.320768E+02  0.128E-01    3.64       0.0  T
   2    -32.0767513 -0.922369E-06  0.747E-02    3.64       1.0  T
   3    -32.0767511  0.255035E-06  0.634E-03    3.64       3.1  T
   4    -32.0767515 -0.436946E-06  0.230E-03    3.64       8.5  T
   5    -32.0767516 -0.550237E-07  0.917E-04    3.64      21.4  T
   6    -32.0767516 -0.835112E-08  0.360E-04    3.64      54.5  T
   7    -32.0767516 -0.872973E-10  0.100E-04    3.64     195.7  T
   8    -32.0767516 -0.127407E-09  0.353E-05    3.64     556.3  T
   9    -32.0767516 -0.228582E-10  0.117E-05    3.64    1670.6  T
  10    -32.0767516 -0.341061E-12  0.363E-06    3.64    5401.1  T
  11    -32.0767516 -0.213163E-13  0.147E-06    3.64   13347.9  T
     SCC iter.                  ...        0 min,  0.078 sec
     gradient                   ...        0 min,  0.002 sec
 * total energy  :   -31.5555957 Eh     change       -0.7271286E-04 Eh
   gradient norm :     0.0021184 Eh/α   predicted    -0.2797018E-04 ( -61.53%)
   displ. norm   :     0.1997660 α      lambda       -0.5976558E-04
   maximum displ.:     0.1546020 α      in ANC's #1, #2, #3, ...

........................................................................
.............................. CYCLE   31 ..............................
........................................................................

 iter      E             dE          RMSdq      gap      omega  full diag
   1    -32.0768661 -0.320769E+02  0.880E-02    3.64       0.0  T
   2    -32.0768665 -0.455033E-06  0.516E-02    3.64       1.0  T
   3    -32.0768664  0.979551E-07  0.438E-03    3.64       4.5  T
   4    -32.0768666 -0.189667E-06  0.140E-03    3.64      14.0  T
   5    -32.0768666 -0.158758E-07  0.574E-04    3.64      34.1  T
   6    -32.0768666 -0.384819E-08  0.254E-04    3.64      77.3  T
   7    -32.0768666 -0.123904E-09  0.730E-05    3.64     268.6  T
   8    -32.0768666 -0.371685E-10  0.208E-05    3.64     943.4  T
   9    -32.0768666 -0.104023E-10  0.762E-06    3.64    2575.1  T
  10    -32.0768666 -0.277112E-12  0.252E-06    3.64    7778.9  T
     SCC iter.                  ...        0 min,  0.078 sec
     gradient                   ...        0 min,  0.002 sec
 * total energy  :   -31.5556505 Eh     change       -0.5480463E-04 Eh
   gradient norm :     0.0015976 Eh/α   predicted    -0.3107718E-04 ( -43.29%)
   displ. norm   :     0.4060256 α      lambda       -0.7933885E-04
   maximum displ.:     0.3161833 α      in ANC's #1, #2, #3, ...

........................................................................
.............................. CYCLE   32 ..............................
........................................................................

 iter      E             dE          RMSdq      gap      omega  full diag
   1    -32.0762359 -0.320762E+02  0.177E-01    3.63       0.0  T
   2    -32.0762378 -0.186483E-05  0.104E-01    3.64       1.0  T
   3    -32.0762374  0.327682E-06  0.918E-03    3.64       2.1  T
   4    -32.0762382 -0.761372E-06  0.264E-03    3.64       7.4  T
   5    -32.0762382 -0.360279E-07  0.122E-03    3.64      16.1  T
   6    -32.0762383 -0.173004E-07  0.539E-04    3.64      36.4  T
   7    -32.0762383 -0.534726E-09  0.136E-04    3.64     144.3  T
   8    -32.0762383 -0.173841E-09  0.386E-05    3.64     508.5  T
   9    -32.0762383 -0.292033E-10  0.144E-05    3.64    1358.0  T
  10    -32.0762383 -0.930811E-12  0.475E-06    3.64    4129.1  T
  11    -32.0762383 -0.497380E-13  0.176E-06    3.64   11150.2  T
     SCC iter.                  ...        0 min,  0.076 sec
     gradient                   ...        0 min,  0.002 sec
 * total energy  :   -31.5557452 Eh     change       -0.9467353E-04 Eh
   gradient norm :     0.0014579 Eh/α   predicted    -0.4257713E-04 ( -55.03%)
   displ. norm   :     0.4449290 α      lambda       -0.6408638E-04
   maximum displ.:     0.3519846 α      in ANC's #1, #2, #3, ...

........................................................................
.............................. CYCLE   33 ..............................
........................................................................

 iter      E             dE          RMSdq      gap      omega  full diag
   1    -32.0749944 -0.320750E+02  0.194E-01    3.63       0.0  T
   2    -32.0749969 -0.246839E-05  0.114E-01    3.63       1.0  T
   3    -32.0749965  0.382276E-06  0.100E-02    3.63       2.0  T
   4    -32.0749974 -0.874287E-06  0.316E-03    3.63       6.2  T
   5    -32.0749974 -0.615758E-07  0.128E-03    3.63      15.3  T
   6    -32.0749974 -0.217139E-07  0.581E-04    3.63      33.8  T
   7    -32.0749974 -0.106580E-08  0.163E-04    3.63     120.5  T
   8    -32.0749974 -0.153157E-09  0.476E-05    3.63     412.4  T
   9    -32.0749974 -0.359179E-10  0.180E-05    3.63    1086.8  T
  10    -32.0749974 -0.207478E-11  0.567E-06    3.63    3460.7  T
  11    -32.0749974 -0.149214E-12  0.259E-06    3.63    7560.7  T
     SCC iter.                  ...        0 min,  0.079 sec
     gradient                   ...        0 min,  0.002 sec
 * total energy  :   -31.5557988 Eh     change       -0.5361302E-04 Eh
   gradient norm :     0.0034051 Eh/α   predicted    -0.3486478E-04 ( -34.97%)
   displ. norm   :     0.1110157 α      lambda       -0.3850113E-04
   maximum displ.:     0.0901055 α      in ANC's #1, #2, #10, ...

........................................................................
.............................. CYCLE   34 ..............................
........................................................................

 iter      E             dE          RMSdq      gap      omega  full diag
   1    -32.0764009 -0.320764E+02  0.452E-02    3.64       0.0  T
   2    -32.0764010 -0.183662E-06  0.266E-02    3.64       1.0  T
   3    -32.0764009  0.115393E-06  0.315E-03    3.64       6.2  T
   4    -32.0764011 -0.162460E-06  0.101E-03    3.64      19.4  T
   5    -32.0764011 -0.838728E-08  0.369E-04    3.64      53.2  T
   6    -32.0764011 -0.139031E-08  0.194E-04    3.64     101.3  T
   7    -32.0764011 -0.156717E-09  0.555E-05    3.64     353.6  T
   8    -32.0764011 -0.237677E-10  0.119E-05    3.64    1641.5  T
   9    -32.0764011 -0.139977E-11  0.495E-06    3.64    3961.9  T
  10    -32.0764011 -0.248690E-12  0.171E-06    3.64   11474.0  T
     SCC iter.                  ...        0 min,  0.075 sec
     gradient                   ...        0 min,  0.002 sec
 * total energy  :   -31.5558238 Eh     change       -0.2500215E-04 Eh
   gradient norm :     0.0017071 Eh/α   predicted    -0.1948822E-04 ( -22.05%)
   displ. norm   :     0.2147176 α      lambda       -0.2420832E-04
   maximum displ.:     0.1758131 α      in ANC's #1, #2, #10, ...

........................................................................
.............................. CYCLE   35 ..............................
........................................................................

 iter      E             dE          RMSdq      gap      omega  full diag
   1    -32.0768135 -0.320768E+02  0.884E-02    3.64       0.0  T
   2    -32.0768139 -0.437606E-06  0.520E-02    3.64       1.0  T
   3    -32.0768138  0.119102E-06  0.460E-03    3.64       4.3  T
   4    -32.0768141 -0.229473E-06  0.142E-03    3.64      13.8  T
   5    -32.0768141 -0.152041E-07  0.676E-04    3.64      29.0  T
   6    -32.0768141 -0.581471E-08  0.330E-04    3.64      59.4  T
   7    -32.0768141 -0.219138E-09  0.602E-05    3.64     326.0  T
   8    -32.0768141 -0.197602E-10  0.195E-05    3.64    1007.7  T
   9    -32.0768141 -0.621725E-11  0.877E-06    3.64    2235.4  T
  10    -32.0768141 -0.618172E-12  0.270E-06    3.64    7261.3  T
     SCC iter.                  ...        0 min,  0.079 sec
     gradient                   ...        0 min,  0.002 sec
 * total energy  :   -31.5558494 Eh     change       -0.2552814E-04 Eh
   gradient norm :     0.0012363 Eh/α   predicted    -0.1235580E-04 ( -51.60%)
   displ. norm   :     0.2366750 α      lambda       -0.2730474E-04
   maximum displ.:     0.1919565 α      in ANC's #1, #2, #5, ...

........................................................................
.............................. CYCLE   36 ..............................
........................................................................

 iter      E             dE          RMSdq      gap      omega  full diag
   1    -32.0771944 -0.320772E+02  0.969E-02    3.64       0.0  T
   2    -32.0771949 -0.471062E-06  0.568E-02    3.64       1.0  T
   3    -32.0771948  0.852323E-07  0.402E-03    3.64       4.9  T
   4    -32.0771950 -0.185974E-06  0.167E-03    3.64      11.8  T
   5    -32.0771950 -0.360188E-07  0.593E-04    3.64      33.1  T
   6    -32.0771950 -0.268525E-08  0.298E-04    3.64      65.8  T
   7    -32.0771950 -0.250168E-09  0.756E-05    3.64     259.5  T
   8    -32.0771950 -0.296012E-10  0.249E-05    3.64     787.2  T
   9    -32.0771950 -0.867573E-11  0.995E-06    3.64    1971.1  T
  10    -32.0771950 -0.689226E-12  0.293E-06    3.64    6684.8  T
     SCC iter.                  ...        0 min,  0.074 sec
     gradient                   ...        0 min,  0.002 sec
 * total energy  :   -31.5558720 Eh     change       -0.2265755E-04 Eh
   gradient norm :     0.0019070 Eh/α   predicted    -0.1399266E-04 ( -38.24%)
   displ. norm   :     0.2042133 α      lambda       -0.1895845E-04
   maximum displ.:     0.1642614 α      in ANC's #1, #2, #5, ...

........................................................................
.............................. CYCLE   37 ..............................
........................................................................

 iter      E             dE          RMSdq      gap      omega  full diag
   1    -32.0760963 -0.320761E+02  0.830E-02    3.63       0.0  T
   2    -32.0760966 -0.372674E-06  0.486E-02    3.63       1.0  T
   3    -32.0760964  0.216211E-06  0.437E-03    3.63       4.5  T
   4    -32.0760967 -0.311090E-06  0.150E-03    3.63      13.1  T
   5    -32.0760968 -0.327128E-07  0.541E-04    3.63      36.2  T
   6    -32.0760968 -0.320236E-08  0.273E-04    3.63      71.7  T
   7    -32.0760968 -0.128175E-09  0.626E-05    3.63     313.5  T
   8    -32.0760968 -0.644249E-10  0.273E-05    3.63     719.6  T
   9    -32.0760968 -0.787992E-11  0.761E-06    3.63    2577.1  T
  10    -32.0760968 -0.163425E-12  0.296E-06    3.63    6636.4  T
     SCC iter.                  ...        0 min,  0.074 sec
     gradient                   ...        0 min,  0.002 sec
 * total energy  :   -31.5558811 Eh     change       -0.9110074E-05 Eh
   gradient norm :     0.0022240 Eh/α   predicted    -0.9656888E-05 (   6.00%)
   displ. norm   :     0.0589129 α      lambda       -0.1620775E-04
   maximum displ.:     0.0309889 α      in ANC's #1, #2, #3, ...

........................................................................
.............................. CYCLE   38 ..............................
........................................................................

 iter      E             dE          RMSdq      gap      omega  full diag
   1    -32.0772916 -0.320773E+02  0.232E-02    3.64       0.0  T
   2    -32.0772917 -0.582534E-07  0.136E-02    3.64       1.4  T
   3    -32.0772916  0.337278E-07  0.175E-03    3.64      11.2  T
   4    -32.0772917 -0.456072E-07  0.541E-04    3.64      36.2  T
   5    -32.0772917 -0.297739E-08  0.180E-04    3.64     109.0  T
   6    -32.0772917 -0.323048E-09  0.815E-05    3.64     240.5  T
   7    -32.0772917 -0.110489E-10  0.253E-05    3.64     776.7  T
   8    -32.0772917 -0.588329E-11  0.818E-06    3.64    2396.8  T
   9    -32.0772917 -0.532907E-12  0.300E-06    3.64    6542.5  T
     SCC iter.                  ...        0 min,  0.073 sec
     gradient                   ...        0 min,  0.002 sec
 * total energy  :   -31.5558911 Eh     change       -0.9945273E-05 Eh
   gradient norm :     0.0012991 Eh/α   predicted    -0.8135815E-05 ( -18.19%)
   displ. norm   :     0.0934943 α      lambda       -0.1768560E-04
   maximum displ.:     0.0613183 α      in ANC's #1, #10, #8, ...

........................................................................
.............................. CYCLE   39 ..............................
........................................................................

 iter      E             dE          RMSdq      gap      omega  full diag
   1    -32.0769911 -0.320770E+02  0.373E-02    3.64       0.0  T
   2    -32.0769913 -0.126730E-06  0.219E-02    3.64       1.0  T
   3    -32.0769912  0.373255E-07  0.259E-03    3.64       7.6  T
   4    -32.0769913 -0.697996E-07  0.854E-04    3.64      23.0  T
   5    -32.0769913 -0.426142E-08  0.350E-04    3.64      56.1  T
   6    -32.0769913 -0.115255E-08  0.133E-04    3.64     146.9  T
   7    -32.0769913 -0.216005E-10  0.438E-05    3.64     447.8  T
   8    -32.0769913 -0.797939E-11  0.182E-05    3.64    1077.1  T
   9    -32.0769913 -0.595435E-11  0.480E-06    3.64    4087.5  T
  10    -32.0769913 -0.106581E-12  0.181E-06    3.64   10841.1  T
     SCC iter.                  ...        0 min,  0.073 sec
     gradient                   ...        0 min,  0.002 sec
 * total energy  :   -31.5558990 Eh     change       -0.7965979E-05 Eh
   gradient norm :     0.0026247 Eh/α   predicted    -0.8877776E-05 (  11.45%)
   displ. norm   :     0.0348153 α      lambda       -0.1299058E-04
   maximum displ.:     0.0202888 α      in ANC's #1, #3, #10, ...

........................................................................
.............................. CYCLE   40 ..............................
........................................................................

 iter      E             dE          RMSdq      gap      omega  full diag
   1    -32.0773439 -0.320773E+02  0.124E-02    3.64       0.0  T
   2    -32.0773440 -0.315583E-07  0.720E-03    3.64       2.7  T
   3    -32.0773439  0.231803E-07  0.137E-03    3.64      14.3  T
   4    -32.0773440 -0.295603E-07  0.388E-04    3.64      50.5  T
   5    -32.0773440 -0.120089E-08  0.151E-04    3.64     129.5  T
   6    -32.0773440 -0.218854E-09  0.859E-05    3.64     228.3  T
   7    -32.0773440 -0.425260E-10  0.263E-05    3.64     746.1  T
   8    -32.0773440 -0.118661E-11  0.853E-06    3.64    2298.4  T
   9    -32.0773440 -0.161293E-11  0.237E-06    3.64    8288.1  T
     SCC iter.                  ...        0 min,  0.073 sec
     gradient                   ...        0 min,  0.002 sec
 * total energy  :   -31.5559085 Eh     change       -0.9498844E-05 Eh
   gradient norm :     0.0013834 Eh/α   predicted    -0.6506504E-05 ( -31.50%)
   displ. norm   :     0.1559207 α      lambda       -0.1307673E-04
   maximum displ.:     0.1281055 α      in ANC's #1, #2, #3, ...

........................................................................
.............................. CYCLE   41 ..............................
........................................................................

 iter      E             dE          RMSdq      gap      omega  full diag
   1    -32.0768584 -0.320769E+02  0.628E-02    3.63       0.0  T
   2    -32.0768586 -0.283434E-06  0.367E-02    3.64       1.0  T
   3    -32.0768586  0.664330E-07  0.282E-03    3.64       6.9  T
   4    -32.0768587 -0.882112E-07  0.153E-03    3.64      12.8  T
   5    -32.0768587 -0.492758E-07  0.375E-04    3.64      52.3  T
   6    -32.0768587 -0.422247E-09  0.163E-04    3.64     120.0  T
   7    -32.0768587 -0.148574E-10  0.705E-05    3.64     278.1  T
   8    -32.0768587 -0.440465E-10  0.209E-05    3.64     936.4  T
   9    -32.0768587 -0.523670E-11  0.626E-06    3.64    3132.2  T
  10    -32.0768587 -0.454747E-12  0.240E-06    3.64    8166.7  T
     SCC iter.                  ...        0 min,  0.073 sec
     gradient                   ...        0 min,  0.002 sec
 * total energy  :   -31.5559163 Eh     change       -0.7779653E-05 Eh
   gradient norm :     0.0017993 Eh/α   predicted    -0.6613799E-05 ( -14.99%)
   displ. norm   :     0.0312563 α      lambda       -0.4515984E-05
   maximum displ.:     0.0193441 α      in ANC's #1, #3, #10, ...

........................................................................
.............................. CYCLE   42 ..............................
........................................................................

 iter      E             dE          RMSdq      gap      omega  full diag
   1    -32.0770213 -0.320770E+02  0.108E-02    3.64       0.0  T
   2    -32.0770213 -0.239129E-07  0.641E-03    3.64       3.1  T
   3    -32.0770212  0.269661E-07  0.127E-03    3.64      15.5  T
   4    -32.0770213 -0.334417E-07  0.319E-04    3.64      61.4  T
   5    -32.0770213 -0.854193E-09  0.121E-04    3.64     162.6  T
   6    -32.0770213 -0.178630E-09  0.589E-05    3.64     332.8  T
   7    -32.0770213 -0.172165E-10  0.189E-05    3.64    1038.6  T
   8    -32.0770213 -0.760281E-12  0.537E-06    3.64    3649.7  T
   9    -32.0770213 -0.270006E-12  0.154E-06    3.64   12701.0  T
     SCC iter.                  ...        0 min,  0.073 sec
     gradient                   ...        0 min,  0.002 sec
 * total energy  :   -31.5559204 Eh     change       -0.4083134E-05 Eh
   gradient norm :     0.0009713 Eh/α   predicted    -0.2260528E-05 ( -44.64%)
   displ. norm   :     0.0682134 α      lambda       -0.4153801E-05
   maximum displ.:     0.0554671 α      in ANC's #1, #2, #3, ...
 * RMSD in coord.:     0.7326452 α      energy gain  -0.9608422E-03 Eh

generating ANC from model Hessian ...
Using Lindh-Hessian (1995)
 Shifting diagonal of input Hessian by   9.255270975096989E-003
 Lowest  eigenvalues of input Hessian
    0.000000    0.000000    0.000000    0.000000    0.000000    0.000000
    0.010000    0.010296    0.010797    0.011294    0.012192    0.013054
    0.015073    0.017754    0.018254    0.019617    0.024314    0.024422
 Highest eigenvalues
    1.364376    1.552563    1.576181    1.880796    1.987451    2.005794
 

........................................................................
.............................. CYCLE   43 ..............................
........................................................................

 iter      E             dE          RMSdq      gap      omega  full diag
   1    -32.0771578 -0.320772E+02  0.268E-02    3.64       0.0  T
   2    -32.0771578 -0.481183E-07  0.157E-02    3.64       1.2  T
   3    -32.0771578  0.147447E-07  0.164E-03    3.64      12.0  T
   4    -32.0771578 -0.286872E-07  0.439E-04    3.64      44.7  T
   5    -32.0771578 -0.907768E-09  0.256E-04    3.64      76.5  T
   6    -32.0771578 -0.792582E-09  0.947E-05    3.64     207.0  T
   7    -32.0771578 -0.941469E-11  0.224E-05    3.64     875.0  T
   8    -32.0771578 -0.480327E-11  0.740E-06    3.64    2651.0  T
   9    -32.0771578 -0.603961E-12  0.301E-06    3.64    6512.5  T
     SCC iter.                  ...        0 min,  0.073 sec
     gradient                   ...        0 min,  0.002 sec
 * total energy  :   -31.5559237 Eh     change       -0.3287089E-05 Eh
   gradient norm :     0.0007144 Eh/α   predicted     0.0000000E+00 (-100.00%)
   displ. norm   :     0.0121101 α      lambda       -0.5075519E-06
   maximum displ.:     0.0054725 α      in ANC's #3, #9, #5, ...

........................................................................
.............................. CYCLE   44 ..............................
........................................................................

 iter      E             dE          RMSdq      gap      omega  full diag
   1    -32.0772459 -0.320772E+02  0.862E-03    3.64       0.0  T
   2    -32.0772459 -0.191025E-07  0.476E-03    3.64       4.1  T
   3    -32.0772459  0.966125E-10  0.884E-04    3.64      22.2  T
   4    -32.0772460 -0.149911E-08  0.327E-04    3.64      60.1  T
   5    -32.0772460 -0.134851E-08  0.890E-05    3.64     220.4  T
   6    -32.0772460 -0.822880E-10  0.421E-05    3.64     466.4  T
   7    -32.0772460 -0.114824E-10  0.160E-05    3.64    1228.7  T
   8    -32.0772460 -0.909495E-12  0.633E-06    3.64    3096.3  T
   9    -32.0772460 -0.468958E-12  0.246E-06    3.64    7962.4  T
     SCC iter.                  ...        0 min,  0.073 sec
     gradient                   ...        0 min,  0.002 sec
 * total energy  :   -31.5559251 Eh     change       -0.1454806E-05 Eh
   gradient norm :     0.0002534 Eh/α   predicted    -0.9935330E-06 ( -31.71%)
   displ. norm   :     0.0136216 α      lambda       -0.9334374E-06
   maximum displ.:     0.0079763 α      in ANC's #3, #9, #5, ...

........................................................................
.............................. CYCLE   45 ..............................
........................................................................

 iter      E             dE          RMSdq      gap      omega  full diag
   1    -32.0772881 -0.320773E+02  0.461E-03    3.64       0.0  T
   2    -32.0772881 -0.897809E-08  0.259E-03    3.64       7.6  T
   3    -32.0772881  0.314813E-09  0.574E-04    3.64      34.2  T
   4    -32.0772881 -0.110095E-08  0.217E-04    3.64      90.5  T
   5    -32.0772881 -0.415355E-09  0.681E-05    3.64     288.1  T
   6    -32.0772881 -0.102524E-09  0.249E-05    3.64     786.5  T
   7    -32.0772881 -0.199663E-11  0.106E-05    3.64    1855.3  T
   8    -32.0772881 -0.177636E-12  0.360E-06    3.64    5448.2  T
   9    -32.0772881 -0.177636E-12  0.110E-06    3.64   17824.4  T
     SCC iter.                  ...        0 min,  0.079 sec
     gradient                   ...        0 min,  0.002 sec
 * total energy  :   -31.5559261 Eh     change       -0.9982732E-06 Eh
   gradient norm :     0.0003559 Eh/α   predicted    -0.4682855E-06 ( -53.09%)
   displ. norm   :     0.0265864 α      lambda       -0.1164875E-05
   maximum displ.:     0.0147183 α      in ANC's #3, #5, #9, ...

........................................................................
.............................. CYCLE   46 ..............................
........................................................................

 iter      E             dE          RMSdq      gap      omega  full diag
   1    -32.0772576 -0.320773E+02  0.638E-03    3.64       0.0  T
   2    -32.0772576 -0.372241E-08  0.377E-03    3.64       5.2  T
   3    -32.0772576  0.171759E-09  0.380E-04    3.64      51.6  T
   4    -32.0772576 -0.993005E-09  0.161E-04    3.64     121.6  T
   5    -32.0772576 -0.168292E-09  0.558E-05    3.64     351.8  T
   6    -32.0772576 -0.427320E-10  0.269E-05    3.64     729.3  T
   7    -32.0772576 -0.252243E-11  0.606E-06    3.64    3238.6  T
   8    -32.0772576 -0.994760E-13  0.275E-06    3.64    7121.9  T
     SCC iter.                  ...        0 min,  0.075 sec
     gradient                   ...        0 min,  0.002 sec
 * total energy  :   -31.5559274 Eh     change       -0.1296047E-05 Eh
   gradient norm :     0.0003266 Eh/α   predicted    -0.6232263E-06 ( -51.91%)
   displ. norm   :     0.0301457 α      lambda       -0.9792370E-06
   maximum displ.:     0.0166030 α      in ANC's #3, #5, #9, ...

........................................................................
.............................. CYCLE   47 ..............................
........................................................................

 iter      E             dE          RMSdq      gap      omega  full diag
   1    -32.0772210 -0.320772E+02  0.743E-03    3.64       0.0  T
   2    -32.0772210 -0.647711E-08  0.436E-03    3.64       4.5  T
   3    -32.0772210  0.945839E-09  0.469E-04    3.64      41.8  T
   4    -32.0772210 -0.962942E-09  0.262E-04    3.64      74.9  T
   5    -32.0772210 -0.145711E-08  0.678E-05    3.64     289.5  T
[...]

           ------------------------------------------------- 
          |                Numerical Hessian                |
           ------------------------------------------------- 
step length          :   0.00500
SCC accuracy         :   0.30000
Hessian scale factor :   1.00000
frozen atoms in %    :   0.00000    0
RMS gradient         :   0.00002
estimated CPU  time      1.13 min
estimated wall time      0.14 min

writing file <hessian>.

 projected vibrational frequencies (cm⁻¹)
eigval :       -0.00    -0.00    -0.00     0.00     0.00     0.00
eigval :       27.34    70.32    81.50   127.31   129.55   199.84
eigval :      204.27   228.07   261.55   277.20   283.88   356.98
eigval :      363.06   406.23   473.01   585.95   638.31   657.07
eigval :      683.15   704.56   729.48   746.83   791.30   871.10
eigval :      894.43   925.10   931.17   968.58   974.45   998.56
eigval :     1012.46  1021.86  1065.61  1072.96  1085.90  1115.65
eigval :     1123.37  1181.89  1203.34  1225.70  1227.82  1251.18
eigval :     1266.81  1282.36  1316.94  1408.61  1410.76  1421.68
eigval :     1451.09  1455.26  1461.98  1497.27  1501.01  1504.95
eigval :     1508.42  1577.47  1589.03  2938.90  2942.37  2949.31
eigval :     2960.77  3011.46  3013.19  3024.15  3024.75  3034.33
eigval :     3039.13  3058.99  3068.38  3074.78  3087.11  3094.12
           -------------------------------------------------
          |                Property Printout                |
           -------------------------------------------------

    * Orbital Energies and Occupations

         #    Occupation            Energy/Eh            Energy/eV
      -------------------------------------------------------------
         1        2.0000           -0.6587526             -17.9256
       ...           ...                  ...                  ...
        18        2.0000           -0.4770456             -12.9811
        19        2.0000           -0.4739893             -12.8979
        20        2.0000           -0.4690236             -12.7628
        21        2.0000           -0.4616383             -12.5618
        22        2.0000           -0.4527094             -12.3188
        23        2.0000           -0.4451487             -12.1131
        24        2.0000           -0.4393524             -11.9554
        25        2.0000           -0.4247032             -11.5568
        26        2.0000           -0.4143420             -11.2748
        27        2.0000           -0.4078495             -11.0981
        28        2.0000           -0.4027962             -10.9606
        29        2.0000           -0.4007070             -10.9038
        30        2.0000           -0.3635232              -9.8920 (HOMO)
        31                         -0.2298576              -6.2547 (LUMO)
        32                         -0.2215262              -6.0280
        33                         -0.1545208              -4.2047
        34                         -0.1498686              -4.0781
        35                         -0.0933323              -2.5397
        36                          0.0108222               0.2945
        37                          0.0439075               1.1948
        38                          0.1057974               2.8789
        39                          0.1122032               3.0532
        40                          0.1165506               3.1715
        41                          0.1319237               3.5898
       ...                                ...                  ...
        64                          0.7997866              21.7633
      -------------------------------------------------------------
                  HL-Gap            0.1336657 Eh            3.6372 eV
             Fermi-level           -0.2966904 Eh           -8.0734 eV

     #   Z          covCN         q      C6AA      α(0)
     1  15 P        3.019    -0.113   165.359    23.101
     2   6 C        3.748    -0.045    21.450     6.606
     3   1 H        0.925     0.047     2.362     2.403
     4   1 H        0.926     0.041     2.441     2.443
     5   6 C        3.818    -0.097    22.333     6.726
     6   1 H        0.925     0.037     2.488     2.467
     7   1 H        0.925     0.041     2.431     2.438
     8   1 H        0.925     0.032     2.556     2.500
     9   6 C        2.915     0.010    27.791     8.645
    10   6 C        2.961    -0.034    28.833     8.807
    11   6 C        3.020    -0.030    28.728     8.792
    12   6 C        2.919    -0.031    28.767     8.795
    13   6 C        2.918    -0.030    28.754     8.793
    14   6 C        2.920    -0.031    28.777     8.797
    15   1 H        0.926     0.033     2.550     2.497
    16   1 H        0.925     0.034     2.533     2.489
    17   1 H        0.926     0.028     2.617     2.530
    18   1 H        0.926     0.029     2.604     2.524
    19   1 H        0.926     0.028     2.611     2.527
    20   6 C        3.748    -0.044    21.428     6.602
    21   1 H        0.926     0.041     2.438     2.442
    22   1 H        0.926     0.042     2.424     2.435
    23   6 C        3.780    -0.094    22.320     6.730
    24   1 H        0.925     0.038     2.479     2.462
    25   1 H        0.925     0.037     2.483     2.464
    26   1 H        0.925     0.032     2.560     2.502

 Mol. C6AA /au·bohr⁶  :       7601.174265
 Mol. C8AA /au·bohr⁸  :     202606.681227
 Mol. α(0) /au        :        139.517604


Wiberg/Mayer (AO) data.
largest (>0.10) Wiberg bond orders for each atom

 ---------------------------------------------------------------------------
     #   Z sym  total        # sym  WBO       # sym  WBO       # sym  WBO
 ---------------------------------------------------------------------------
     1  15 P    3.378 --     2 C    1.027     9 C    1.019    20 C    1.014
     2   6 C    3.995 --     1 P    1.027     5 C    1.015     4 H    0.956
                             3 H    0.951
     3   1 H    0.998 --     2 C    0.951
     4   1 H    0.998 --     2 C    0.956
     5   6 C    3.996 --     2 C    1.015     8 H    0.985     7 H    0.984
                             6 H    0.984
     6   1 H    0.999 --     5 C    0.984
     7   1 H    0.998 --     5 C    0.984
     8   1 H    0.999 --     5 C    0.985
     9   6 C    3.982 --    10 C    1.402    11 C    1.390     1 P    1.019
                            14 C    0.106
    10   6 C    3.993 --    12 C    1.441     9 C    1.402    15 H    0.963
                            13 C    0.107
    11   6 C    3.992 --    13 C    1.457     9 C    1.390    16 H    0.962
                            12 C    0.110
    12   6 C    3.993 --    14 C    1.441    10 C    1.441    17 H    0.970
                            11 C    0.110
    13   6 C    3.992 --    11 C    1.457    14 C    1.428    18 H    0.970
                            10 C    0.107
    14   6 C    3.991 --    12 C    1.441    13 C    1.428    19 H    0.971
                             9 C    0.106
    15   1 H    0.999 --    10 C    0.963
    16   1 H    0.999 --    11 C    0.962
    17   1 H    0.999 --    12 C    0.970
    18   1 H    0.999 --    13 C    0.970
    19   1 H    0.998 --    14 C    0.971
    20   6 C    3.994 --     1 P    1.014    23 C    1.012    21 H    0.956
                            22 H    0.954
    21   1 H    0.998 --    20 C    0.956
    22   1 H    0.998 --    20 C    0.954
    23   6 C    3.997 --    20 C    1.012    24 H    0.984    26 H    0.983
                            25 H    0.983
    24   1 H    0.999 --    23 C    0.984
    25   1 H    0.999 --    23 C    0.983
    26   1 H    0.999 --    23 C    0.983
 ---------------------------------------------------------------------------

Topologies differ in total number of bonds
Writing topology from bond orders to xtbtopo.mol

molecular dipole:
                 x           y           z       tot (Debye)
 q only:       -0.342      -0.062      -0.040
   full:       -0.647       0.141      -0.042       1.685
molecular quadrupole (traceless):
                xx          xy          yy          xz          yz          zz
 q only:       -3.345       0.039       0.614       3.644       0.598       2.731
  q+dip:       -8.989       1.317       3.121       8.130      -1.555       5.868
   full:       -7.152       1.867       2.175       6.972      -1.371       4.977

           -------------------------------------------------
          |                Geometry Summary                 |
           -------------------------------------------------

      molecular mass/u    :      166.2002322
   center of mass at/Å    :        1.2713164       1.1853337      -3.0807725
  moments of inertia/u·Å² :        0.2864495E+03   0.8232028E+03   0.9297911E+03
rotational constants/cm⁻¹ :        0.5885027E-01   0.2047810E-01   0.1813056E-01

 * 24 selected distances

     #   Z          #   Z                                           value/Å
     1  15 P        2   6 C                                       1.8646920 (max)
     2   6 C        3   1 H                                       1.0924804
     2   6 C        4   1 H                                       1.0940342
     2   6 C        5   6 C                                       1.5234036
     5   6 C        6   1 H                                       1.0877577
     5   6 C        7   1 H                                       1.0885040
     5   6 C        8   1 H                                       1.0890352
     9   6 C       10   6 C                                       1.3898399
     9   6 C       11   6 C                                       1.3938412
    10   6 C       12   6 C                                       1.3845262
    11   6 C       13   6 C                                       1.3809794
    12   6 C       14   6 C                                       1.3835654
    13   6 C       14   6 C                                       1.3855875
    10   6 C       15   1 H                                       1.0792859 (min)
    11   6 C       16   1 H                                       1.0816266
    12   6 C       17   1 H                                       1.0808589
    13   6 C       18   1 H                                       1.0806399
    14   6 C       19   1 H                                       1.0801478
    20   6 C       21   1 H                                       1.0934693
    20   6 C       22   1 H                                       1.0934585
    20   6 C       23   6 C                                       1.5222142
    23   6 C       24   1 H                                       1.0872198
    23   6 C       25   1 H                                       1.0887767
    23   6 C       26   1 H                                       1.0891467

 * 3 distinct bonds (by element types)

   Z      Z             #   av. dist./Å        max./Å        min./Å
   1 H    6 C          15     1.0870961     1.0940342     1.0792859
   6 C    6 C           8     1.4204947     1.5234036     1.3809794
   6 C   15 P           1     1.8646920     1.8646920     1.8646920

           -------------------------------------------------
          |               Frequency Printout                |
           -------------------------------------------------
 projected vibrational frequencies (cm⁻¹)
eigval :       -0.00    -0.00    -0.00     0.00     0.00     0.00
eigval :       27.34    70.32    81.50   127.31   129.55   199.84
eigval :      204.27   228.07   261.55   277.20   283.88   356.98
eigval :      363.06   406.23   473.01   585.95   638.31   657.07
eigval :      683.15   704.56   729.48   746.83   791.30   871.10
eigval :      894.43   925.10   931.17   968.58   974.45   998.56
eigval :     1012.46  1021.86  1065.61  1072.96  1085.90  1115.65
eigval :     1123.37  1181.89  1203.34  1225.70  1227.82  1251.18
eigval :     1266.81  1282.36  1316.94  1408.61  1410.76  1421.68
eigval :     1451.09  1455.26  1461.98  1497.27  1501.01  1504.95
eigval :     1508.42  1577.47  1589.03  2938.90  2942.37  2949.31
eigval :     2960.77  3011.46  3013.19  3024.15  3024.75  3034.33
eigval :     3039.13  3058.99  3068.38  3074.78  3087.11  3094.12
 reduced masses (amu)
   1: 12.01   2: 12.91   3: 14.40   4: 15.26   5: 13.31   6:  9.78   7:  9.91   8:  9.24
   9:  9.56  10:  6.78  11: 10.30  12:  7.71  13:  3.02  14:  9.55  15:  6.36  16:  9.91
  17: 11.29  18: 13.78  19:  9.06  20: 19.02  21: 13.16  22: 11.18  23: 13.85  24: 10.51
  25: 12.57  26: 15.64  27:  4.48  28:  5.43  29:  4.03  30:  3.33  31:  3.58  32:  4.15
  33:  2.98  34: 10.09  35:  3.69  36:  3.15  37:  3.72  38:  3.91  39:  9.50  40:  9.32
  41:  8.37  42:  8.48  43:  4.44  44:  1.30  45:  1.98  46:  3.63  47:  3.30  48:  4.17
  49:  4.15  50:  3.36  51: 11.92  52:  2.93  53:  2.95  54:  8.60  55:  4.56  56:  2.31
  57:  5.28  58:  1.55  59:  1.54  60:  1.54  61:  1.56  62: 11.42  63: 11.44  64:  1.98
  65:  1.97  66:  1.49  67:  1.49  68:  1.87  69:  1.87  70:  1.72  71:  1.87  72:  1.42
  73:  1.55  74:  1.79  75:  1.77  76:  1.84  77:  1.88  78:  1.86
 IR intensities (km·mol⁻¹)
   1:  0.03   2:  0.01   3:  0.09   4:  0.14   5:  0.08   6:  0.17   7:  0.10   8:  0.07
   9:  0.15  10:  0.34  11:  0.05  12:  0.17  13:  0.06  14:  0.14  15:  0.06  16:  0.29
  17:  0.46  18:  0.43  19:  0.04  20:  1.56  21:  4.47  22:  0.07  23: 10.71  24:  3.11
  25:  0.15  26: 26.47  27: 33.93  28: 18.83  29: 19.56  30:  0.24  31:  0.03  32:  0.04
  33:  0.00  34:  2.47  35:  1.60  36:  2.37  37:  2.54  38:  8.24  39:  9.98  40:  7.27
  41:  0.03  42:  1.15  43:  0.17  44:  0.03  45:  0.81  46:  2.56  47:  3.85  48:  3.64
  49:  5.48  50:  0.39  51:  0.37  52:  1.47  53:  1.72  54:  0.79  55:  0.91  56:  0.71
  57:  0.16  58:  3.98  59:  0.66  60:  1.04  61:  1.03  62:  0.48  63:  5.47  64: 21.22
  65: 19.31  66:  8.68  67: 21.92  68: 49.38  69: 51.05  70: 23.64  71: 30.27  72: 25.15
  73: 21.57  74: 14.20  75:  5.58  76: 52.61  77: 77.04  78: 26.81
 Raman intensities (Ä⁴*amu⁻¹)
   1:  0.00   2:  0.00   3:  0.00   4:  0.00   5:  0.00   6:  0.00   7:  0.00   8:  0.00
   9:  0.00  10:  0.00  11:  0.00  12:  0.00  13:  0.00  14:  0.00  15:  0.00  16:  0.00
  17:  0.00  18:  0.00  19:  0.00  20:  0.00  21:  0.00  22:  0.00  23:  0.00  24:  0.00
  25:  0.00  26:  0.00  27:  0.00  28:  0.00  29:  0.00  30:  0.00  31:  0.00  32:  0.00
  33:  0.00  34:  0.00  35:  0.00  36:  0.00  37:  0.00  38:  0.00  39:  0.00  40:  0.00
  41:  0.00  42:  0.00  43:  0.00  44:  0.00  45:  0.00  46:  0.00  47:  0.00  48:  0.00
  49:  0.00  50:  0.00  51:  0.00  52:  0.00  53:  0.00  54:  0.00  55:  0.00  56:  0.00
  57:  0.00  58:  0.00  59:  0.00  60:  0.00  61:  0.00  62:  0.00  63:  0.00  64:  0.00
  65:  0.00  66:  0.00  67:  0.00  68:  0.00  69:  0.00  70:  0.00  71:  0.00  72:  0.00
  73:  0.00  74:  0.00  75:  0.00  76:  0.00  77:  0.00  78:  0.00
 output can be read by thermo (or use thermo option).
 writing <g98.out> molden fake output.
 recommended (thermochemical) frequency scaling factor: 1.0
           -------------------------------------------------
          |             Thermodynamic Functions             |
           -------------------------------------------------

Refinement of some symmetry elements was terminated before convergence was reached.
Some symmetry elements may remain unidentified.
Molecule has no symmetry elements
It seems to be the C1 point group
c1  symmetry found (for desy threshold:  0.10E+00) used in thermo

          ...................................................
          :                      SETUP                      :
          :.................................................:
          :  # frequencies                          72      :
          :  # imaginary freq.                       0      :
          :  linear?                             false      :
          :  only rotor calc.                    false      :
          :  symmetry                               c1      :
          :  rotational number                       1      :
          :  scaling factor                  1.0000000      :
          :  rotor cutoff                   50.0000000 cm⁻¹ :
          :  imag. cutoff                  -20.0000000 cm⁻¹ :
          :.................................................:

    mode    ω/cm⁻¹     T·S(HO)/kcal·mol⁻¹    T·S(FR)/kcal·mol⁻¹   T·S(vib)
   ------------------------------------------------------------------------
       1     27.34    -1.79304 (  8.20%)    -1.23516 ( 91.80%)    -1.28091
       2     70.32    -1.23564 ( 79.64%)    -0.95542 ( 20.36%)    -1.17860
       3     81.50    -1.14920 ( 87.59%)    -0.91172 ( 12.41%)    -1.11973
       4    127.31    -0.89035 ( 97.68%)    -0.77962 (  2.32%)    -0.88778
       5    129.55    -0.88033 ( 97.83%)    -0.77445 (  2.17%)    -0.87804
       6    199.84    -0.63643 ( 99.61%)    -0.64608 (  0.39%)    -0.63647
       7    204.27    -0.62442 ( 99.64%)    -0.63958 (  0.36%)    -0.62447
       8    228.07    -0.56471 ( 99.77%)    -0.60693 (  0.23%)    -0.56481
       9    261.55    -0.49236 ( 99.87%)    -0.56635 (  0.13%)    -0.49245
      10    277.20    -0.46239 ( 99.89%)    -0.54914 (  0.11%)    -0.46248
      11    283.88    -0.45026 ( 99.90%)    -0.54209 (  0.10%)    -0.45035
   ------------------------------------------------------------------------

   temp. (K)  partition function   enthalpy   heat capacity  entropy
                                   cal/mol     cal/K/mol   cal/K/mol   J/K/mol
 298.15  VIB  0.119E+05             6092.098     39.516     37.059
         ROT  0.113E+07              888.752      2.981     30.681
         INT  0.135E+11             6980.850     42.497     67.740
         TR   0.207E+28             1481.254      4.968     41.214
         TOT                        8462.1044    47.4655   108.9538   455.8625

       T/K    H(0)-H(T)+PV         H(T)/Eh          T*S/Eh         G(T)/Eh
   ------------------------------------------------------------------------
    298.15    0.134852E-01    0.232538E+00    0.517674E-01    0.180771E+00
   ------------------------------------------------------------------------

         :::::::::::::::::::::::::::::::::::::::::::::::::::::
         ::                  THERMODYNAMIC                  ::
         :::::::::::::::::::::::::::::::::::::::::::::::::::::
         :: total free energy         -31.375159198246 Eh   ::
         ::.................................................::
         :: total energy              -31.555930245047 Eh   ::
         :: zero point energy           0.219053267827 Eh   ::
         :: G(RRHO) w/o ZPVE           -0.038282221027 Eh   ::
         :: G(RRHO) contrib.            0.180771046801 Eh   ::
         :::::::::::::::::::::::::::::::::::::::::::::::::::::

optimized geometry written to: xtbopt.xyz


           -------------------------------------------------
          | TOTAL ENERGY              -31.555930245047 Eh   |
          | TOTAL ENTHALPY            -31.323391755523 Eh   |
          | TOTAL FREE ENERGY         -31.375159198246 Eh   |
          | GRADIENT NORM               0.000024344296 Eh/α |
          | HOMO-LUMO GAP               3.637227866251 eV   |
           -------------------------------------------------

------------------------------------------------------------------------
 * finished run on 2025/07/14 at 11:38:24.463     
------------------------------------------------------------------------
 total:
 * wall-time:     0 d,  0 h,  0 min,  8.460 sec
 *  cpu-time:     0 d,  0 h,  1 min, 26.840 sec
 * ratio c/w:    10.264 speedup
 SCF:
 * wall-time:     0 d,  0 h,  0 min,  0.085 sec
 *  cpu-time:     0 d,  0 h,  0 min,  1.010 sec
 * ratio c/w:    11.950 speedup
 ANC optimizer:
 * wall-time:     0 d,  0 h,  0 min,  5.030 sec
 *  cpu-time:     0 d,  0 h,  0 min, 59.293 sec
 * ratio c/w:    11.787 speedup
 analytical hessian:
 * wall-time:     0 d,  0 h,  0 min,  3.335 sec
 *  cpu-time:     0 d,  0 h,  0 min, 26.434 sec
 * ratio c/w:     7.925 speedup

