      -----------------------------------------------------------      
     |                   =====================                   |     
     |                           x T B                           |     
     |                   =====================                   |     
     |                         S. Grimme                         |     
     |          Mulliken Center for Theoretical Chemistry        |     
     |                    University of Bonn                     |     
      -----------------------------------------------------------      

   * xtb version 6.7.0 (08769fc) compiled by 'albert@albert-system' on 2024-03-04

   xtb is free software: you can redistribute it and/or modify it under
   the terms of the GNU Lesser General Public License as published by
   the Free Software Foundation, either version 3 of the License, or
   (at your option) any later version.
   
   xtb is distributed in the hope that it will be useful,
   but WITHOUT ANY WARRANTY; without even the implied warranty of
   MERCHANTABILITY or FITNESS FOR A PARTICULAR PURPOSE.  See the
   GNU Lesser General Public License for more details.
   
   Cite this work as:
   * C. Bannwarth, E. Caldeweyher, S. Ehlert, A. Hansen, P. Pracht,
     J. Seibert, S. Spicher, S. Grimme, WIREs Comput. Mol. Sci., 2020, 11,
     e01493. DOI: 10.1002/wcms.1493
   
   for GFN2-xTB:
   * C. Bannwarth, S. Ehlert and S. Grimme., J. Chem. Theory Comput., 2019,
     15, 1652-1671. DOI: 10.1021/acs.jctc.8b01176
   for GFN1-xTB:
   * S. Grimme, C. Bannwarth, P. Shushkov, J. Chem. Theory Comput., 2017,
     13, 1989-2009. DOI: 10.1021/acs.jctc.7b00118
   for GFN0-xTB:
   * P. Pracht, E. Caldeweyher, S. Ehlert, S. Grimme, ChemRxiv, 2019, preprint.
     DOI: 10.26434/chemrxiv.8326202.v1
   for GFN-FF:
   * S. Spicher and S. Grimme, Angew. Chem. Int. Ed., 2020, 59, 15665-15673.
     DOI: 10.1002/anie.202004239
   
   for ALPB and GBSA implicit solvation:
   * S. Ehlert, M. Stahn, S. Spicher, S. Grimme, J. Chem. Theory Comput.,
     2021, 17, 4250-4261. DOI: 10.1021/acs.jctc.1c00471
   
   for ddCOSMO and CPCM-X implicit solvation:
   * M. Stahn, S. Ehlert, S. Grimme, J. Phys. Chem. A,
     2023, XX, XXXX-XXXX. DOI: 10.1021/acs.jpca.3c04382
   
   for DFT-D4:
   * E. Caldeweyher, C. Bannwarth and S. Grimme, J. Chem. Phys., 2017,
     147, 034112. DOI: 10.1063/1.4993215
   * E. Caldeweyher, S. Ehlert, A. Hansen, H. Neugebauer, S. Spicher,
     C. Bannwarth and S. Grimme, J. Chem. Phys., 2019, 150, 154122.
     DOI: 10.1063/1.5090222
   * E. Caldeweyher, J.-M. Mewes, S. Ehlert and S. Grimme, Phys. Chem. Chem. Phys.
     2020, 22, 8499-8512. DOI: 10.1039/D0CP00502A
   
   for sTDA-xTB:
   * S. Grimme and C. Bannwarth, J. Chem. Phys., 2016, 145, 054103.
     DOI: 10.1063/1.4959605
   
   in the mass-spec context:
   * V. Asgeirsson, C. Bauer and S. Grimme, Chem. Sci., 2017, 8, 4879.
     DOI: 10.1039/c7sc00601b
   * J. Koopman and S. Grimme, ACS Omega 2019, 4, 12, 15120-15133.
     DOI: 10.1021/acsomega.9b02011
   
   for metadynamics refer to:
   * S. Grimme, J. Chem. Theory Comput., 2019, 155, 2847-2862
     DOI: 10.1021/acs.jctc.9b00143
   
   for SPH calculations refer to:
   * S. Spicher and S. Grimme, J. Chem. Theory Comput., 2021, 17, 1701-1714
     DOI: 10.1021/acs.jctc.0c01306
   
   for ONIOM refer to:
   * C. Plett, A. Katbashev, S. Ehlert, S. Grimme, M. Bursch,
     Phys. Chem. Chem. Phys., 2023, 25, 17860-17868. DOI: 10.1039/D3CP02178E
   
   for DIPRO refer to:
   * J. Kohn, N. Gildemeister, S. Grimme, D. Fazzi, A. Hansen,
     J. Chem. Phys., 2023, just accepted.
   
   for PTB refer to:
   * S. Grimme, M. Mueller, A. Hansen, J. Chem. Phys., 2023, 158, 124111.
     DOI: 10.1063/5.0137838
   
   with help from (in alphabetical order)
   P. Atkinson, C. Bannwarth, F. Bohle, G. Brandenburg, E. Caldeweyher
   M. Checinski, S. Dohm, S. Ehlert, S. Ehrlich, I. Gerasimov, C. Hölzer
   A. Katbashev, J. Kohn, J. Koopman, C. Lavigne, S. Lehtola, F. März, M. Müller,
   F. Musil, H. Neugebauer, J. Pisarek, C. Plett, P. Pracht, F. Pultar,
   J. Seibert, P. Shushkov, S. Spicher, M. Stahn, M. Steiner, T. Strunk,
   J. Stückrath, T. Rose, and J. Unsleber
   
 * started run on 2025/07/14 at 11:38:24.501     
   ID    Z sym.   atoms
    1   15 P      1
    2    6 C      2, 5, 9-14, 20, 23
    3    1 H      3, 4, 6-8, 15-19, 21, 22, 24-26

           -------------------------------------------------
          |                Calculation Setup                |
           -------------------------------------------------

          program call               : /home/minenky/programs/xtb/xtb-dist/bin/xtb m1_00_PEt2Ph-PBE0-D3-TZ-uniMM_72.xyz --charge 0 --T --ohess extreme --cycles 5000 --acc 0.01 --iterations 5000
          coordinate file            : m1_00_PEt2Ph-PBE0-D3-TZ-uniMM_72.xyz
          omp threads                :                    12

########################################################################
[WARNING] Please study the warnings concerning your input carefully
-1- prog_main_parseArguments: Unknown option '--T' provided
########################################################################

           -------------------------------------------------
          |                 G F N 2 - x T B                 |
           -------------------------------------------------

        Reference                      10.1021/acs.jctc.8b01176
      * Hamiltonian:
        H0-scaling (s, p, d)           1.850000    2.230000    2.230000
        zeta-weighting                 0.500000
      * Dispersion:
        s8                             2.700000
        a1                             0.520000
        a2                             5.000000
        s9                             5.000000
      * Repulsion:
        kExp                           1.500000    1.000000
        rExp                           1.000000
      * Coulomb:
        alpha                          2.000000
        third order                    shell-resolved
        anisotropic                    true
        a3                             3.000000
        a5                             4.000000
        cn-shift                       1.200000
        cn-exp                         4.000000
        max-rad                        5.000000


          ...................................................
          :                      SETUP                      :
          :.................................................:
          :  # basis functions                  65          :
          :  # atomic orbitals                  64          :
          :  # shells                           38          :
          :  # electrons                        60          :
          :  max. iterations                  5000          :
          :  Hamiltonian                  GFN2-xTB          :
          :  restarted?                      false          :
          :  GBSA solvation                  false          :
          :  PC potential                    false          :
          :  electronic temp.          300.0000000     K    :
          :  accuracy                    0.0100000          :
          :  -> integral cutoff          0.4500000E+02      :
          :  -> integral neglect         0.1000000E-09      :
          :  -> SCF convergence          0.1000000E-07 Eh   :
          :  -> wf. convergence          0.1000000E-05 e    :
          :  Broyden damping             0.4000000          :
          :  net charge                          0          :
          :  unpaired electrons                  0          :
          ...................................................

 iter      E             dE          RMSdq      gap      omega  full diag
   1    -31.9990508 -0.319991E+02  0.348E+00    3.91       0.0  T
   2    -32.0402838 -0.412330E-01  0.207E+00    3.49       1.0  T
   3    -32.0402545  0.292884E-04  0.873E-01    3.23       1.0  T
   4    -32.0416435 -0.138900E-02  0.277E-01    3.26       1.0  T
   5    -32.0425385 -0.894939E-03  0.125E-01    3.31       1.0  T
   6    -32.0427918 -0.253381E-03  0.426E-02    3.30       1.0  T
   7    -32.0428094 -0.175259E-04  0.148E-02    3.30       1.3  T
   8    -32.0428099 -0.567739E-06  0.658E-03    3.30       3.0  T
   9    -32.0428104 -0.430166E-06  0.149E-03    3.30      13.2  T
  10    -32.0428104 -0.234426E-07  0.504E-04    3.30      38.9  T
  11    -32.0428104 -0.136183E-09  0.260E-04    3.30      75.4  T
  12    -32.0428104 -0.558430E-09  0.653E-05    3.30     300.4  T
  13    -32.0428104 -0.783018E-11  0.276E-05    3.30     709.8  T
  14    -32.0428104 -0.246558E-11  0.884E-06    3.30    2217.9  T
  15    -32.0428104 -0.120792E-12  0.313E-06    3.30    6256.0  T

   *** convergence criteria satisfied after 15 iterations ***

         #    Occupation            Energy/Eh            Energy/eV
      -------------------------------------------------------------
         1        2.0000           -0.6608931             -17.9838
       ...           ...                  ...                  ...
        24        2.0000           -0.4334774             -11.7955
        25        2.0000           -0.4242345             -11.5440
        26        2.0000           -0.4156079             -11.3093
        27        2.0000           -0.4071570             -11.0793
        28        2.0000           -0.4021858             -10.9440
        29        2.0000           -0.4006459             -10.9021
        30        2.0000           -0.3522636              -9.5856 (HOMO)
        31                         -0.2309809              -6.2853 (LUMO)
        32                         -0.2223372              -6.0501
        33                         -0.1552717              -4.2252
        34                         -0.1358702              -3.6972
        35                         -0.0960504              -2.6137
       ...                                ...                  ...
        64                          0.7714608              20.9925
      -------------------------------------------------------------
                  HL-Gap            0.1212827 Eh            3.3003 eV
             Fermi-level           -0.2916222 Eh           -7.9354 eV

 SCC (total)                   0 d,  0 h,  0 min,  0.088 sec
 SCC setup                      ...        0 min,  0.000 sec (  0.159%)
 Dispersion                     ...        0 min,  0.000 sec (  0.139%)
 classical contributions        ...        0 min,  0.000 sec (  0.011%)
 integral evaluation            ...        0 min,  0.002 sec (  2.143%)
 iterations                     ...        0 min,  0.084 sec ( 95.468%)
 molecular gradient             ...        0 min,  0.002 sec (  1.975%)
 printout                       ...        0 min,  0.000 sec (  0.086%)

         :::::::::::::::::::::::::::::::::::::::::::::::::::::
         ::                     SUMMARY                     ::
         :::::::::::::::::::::::::::::::::::::::::::::::::::::
         :: total energy             -31.527182650641 Eh    ::
         :: gradient norm              0.057471868485 Eh/a0 ::
         :: HOMO-LUMO gap              3.300269003747 eV    ::
         ::.................................................::
         :: SCC energy               -32.042665335654 Eh    ::
         :: -> isotropic ES            0.004563765246 Eh    ::
         :: -> anisotropic ES          0.006710075195 Eh    ::
         :: -> anisotropic XC          0.022194586323 Eh    ::
         :: -> dispersion             -0.024068060080 Eh    ::
         :: repulsion energy           0.515482685013 Eh    ::
         :: add. restraining           0.000000000000 Eh    ::
         :: total charge               0.000000000000 e     ::
         :::::::::::::::::::::::::::::::::::::::::::::::::::::

      ----------------------------------------------------------- 
     |                   =====================                   |
     |                        A N C O P T                        |
     |                   =====================                   |
     |               Approximate Normal Coordinate               |
     |                Rational Function Optimizer                |
      ----------------------------------------------------------- 
      ----------------------------------------------------------- 
     |                   =====================                   |
     |                        A N C O P T                        |
     |                   =====================                   |
     |               Approximate Normal Coordinate               |
     |                Rational Function Optimizer                |
      ----------------------------------------------------------- 

          ...................................................
          :                      SETUP                      :
          :.................................................:
          :   optimization level           extreme          :
          :   max. optcycles                  5000          :
          :   ANC micro-cycles                  20          :
          :   degrees of freedom                72          :
          :.................................................:
          :   RF solver                   davidson          :
          :   write xtbopt.log                true          :
          :   linear?                        false          :
          :   energy convergence         0.5000000E-07 Eh   :
          :   grad. convergence          0.5000000E-04 Eh/α :
          :   maxmium RF displ.          1.0000000          :
          :   Hlow (freq-cutoff)         0.1000000E-01      :
          :   Hmax (freq-cutoff)         5.0000000          :
          :   S6 in model hess.         20.0000000          :
          ...................................................

generating ANC from model Hessian ...
Using Lindh-Hessian (1995)
 Shifting diagonal of input Hessian by   1.461957333997494E-002
 Lowest  eigenvalues of input Hessian
    0.010000    0.013357    0.014586    0.000000    0.000000    0.000000
    0.000000    0.000000    0.000000    0.015654    0.016731    0.017277
    0.019741    0.022414    0.023164    0.024676    0.028429    0.028844
 Highest eigenvalues
    1.352264    1.540222    1.567426    1.869229    1.971228    1.990872
 

........................................................................
.............................. CYCLE    1 ..............................
........................................................................

 iter      E             dE          RMSdq      gap      omega  full diag
   1    -32.0428104 -0.320428E+02  0.157E-06    3.30       0.0  T
   2    -32.0428104 -0.710543E-14  0.952E-07    3.30   20597.1  T
   3    -32.0428104 -0.213163E-13  0.641E-07    3.30   30611.1  T
     SCC iter.                  ...        0 min,  0.073 sec
     gradient                   ...        0 min,  0.002 sec
 * total energy  :   -31.5271827 Eh     change       -0.1776357E-12 Eh
   gradient norm :     0.0574719 Eh/α   predicted     0.0000000E+00 (-100.00%)
   displ. norm   :     0.5959012 α      lambda       -0.2035136E-01
   maximum displ.:     0.2853277 α      in ANC's #1, #2, #5, ...

........................................................................
.............................. CYCLE    2 ..............................
........................................................................

 iter      E             dE          RMSdq      gap      omega  full diag
   1    -32.0596981 -0.320597E+02  0.407E-01    3.51       0.0  T
   2    -32.0599722 -0.274091E-03  0.192E-01    3.55       1.0  T
   3    -32.0599696  0.260978E-05  0.827E-02    3.58       1.0  T
   4    -32.0600060 -0.363968E-04  0.458E-02    3.58       1.0  T
   5    -32.0600212 -0.151997E-04  0.113E-02    3.58       1.7  T
   6    -32.0600227 -0.151739E-05  0.404E-03    3.58       4.9  T
   7    -32.0600227  0.588667E-08  0.152E-03    3.58      12.9  T
   8    -32.0600227 -0.222225E-07  0.487E-04    3.58      40.3  T
   9    -32.0600227 -0.420972E-08  0.162E-04    3.58     121.3  T
  10    -32.0600227 -0.218996E-09  0.648E-05    3.58     302.8  T
  11    -32.0600227 -0.134008E-10  0.228E-05    3.58     859.7  T
  12    -32.0600227 -0.369482E-11  0.878E-06    3.58    2234.0  T
  13    -32.0600227 -0.270006E-12  0.453E-06    3.58    4331.7  T
     SCC iter.                  ...        0 min,  0.076 sec
     gradient                   ...        0 min,  0.002 sec
 * total energy  :   -31.5402228 Eh     change       -0.1304016E-01 Eh
   gradient norm :     0.0211062 Eh/α   predicted    -0.1378905E-01 (   5.74%)
   displ. norm   :     0.5188945 α      lambda       -0.6276811E-02
   maximum displ.:     0.2711596 α      in ANC's #5, #2, #1, ...

........................................................................
.............................. CYCLE    3 ..............................
........................................................................

 iter      E             dE          RMSdq      gap      omega  full diag
   1    -32.0635705 -0.320636E+02  0.171E-01    3.57       0.0  T
   2    -32.0635857 -0.152032E-04  0.976E-02    3.57       1.0  T
   3    -32.0635839  0.179738E-05  0.228E-02    3.57       1.0  T
   4    -32.0635869 -0.304146E-05  0.738E-03    3.57       2.7  T
   5    -32.0635877 -0.769162E-06  0.287E-03    3.57       6.8  T
   6    -32.0635878 -0.537978E-07  0.133E-03    3.57      14.7  T
   7    -32.0635878 -0.672540E-08  0.624E-04    3.57      31.4  T
   8    -32.0635878 -0.125272E-08  0.185E-04    3.57     106.0  T
   9    -32.0635878 -0.300616E-09  0.920E-05    3.57     213.2  T
  10    -32.0635878 -0.102524E-09  0.364E-05    3.57     538.7  T
  11    -32.0635878 -0.613198E-11  0.136E-05    3.57    1443.2  T
  12    -32.0635878 -0.160583E-11  0.502E-06    3.57    3906.4  T
  13    -32.0635878 -0.284217E-13  0.131E-06    3.57   14996.3  T
     SCC iter.                  ...        0 min,  0.075 sec
     gradient                   ...        0 min,  0.002 sec
 * total energy  :   -31.5449658 Eh     change       -0.4742985E-02 Eh
   gradient norm :     0.0102708 Eh/α   predicted    -0.3983432E-02 ( -16.01%)
   displ. norm   :     0.5590093 α      lambda       -0.3996958E-02
   maximum displ.:     0.3234994 α      in ANC's #5, #2, #3, ...

........................................................................
.............................. CYCLE    4 ..............................
........................................................................

 iter      E             dE          RMSdq      gap      omega  full diag
   1    -32.0631112 -0.320631E+02  0.148E-01    3.61       0.0  T
   2    -32.0631272 -0.160040E-04  0.825E-02    3.61       1.0  T
   3    -32.0631266  0.651125E-06  0.214E-02    3.62       1.0  T
   4    -32.0631284 -0.178160E-05  0.109E-02    3.62       1.8  T
   5    -32.0631294 -0.100867E-05  0.257E-03    3.62       7.6  T
   6    -32.0631295 -0.148965E-06  0.118E-03    3.62      16.6  T
   7    -32.0631295 -0.529659E-08  0.586E-04    3.62      33.5  T
   8    -32.0631295 -0.347661E-09  0.190E-04    3.62     103.2  T
   9    -32.0631295 -0.393896E-09  0.684E-05    3.62     286.8  T
  10    -32.0631295 -0.148361E-10  0.339E-05    3.62     579.0  T
  11    -32.0631295 -0.439826E-11  0.118E-05    3.62    1659.5  T
  12    -32.0631295 -0.788702E-12  0.391E-06    3.62    5020.7  T
  13    -32.0631295 -0.426326E-13  0.190E-06    3.62   10307.7  T
     SCC iter.                  ...        0 min,  0.076 sec
     gradient                   ...        0 min,  0.002 sec
 * total energy  :   -31.5479364 Eh     change       -0.2970584E-02 Eh
   gradient norm :     0.0100783 Eh/α   predicted    -0.2622987E-02 ( -11.70%)
   displ. norm   :     0.5320230 α      lambda       -0.2299878E-02
   maximum displ.:     0.3155859 α      in ANC's #2, #5, #9, ...

........................................................................
.............................. CYCLE    5 ..............................
........................................................................

 iter      E             dE          RMSdq      gap      omega  full diag
   1    -32.0643140 -0.320643E+02  0.116E-01    3.60       0.0  T
   2    -32.0643175 -0.351033E-05  0.704E-02    3.60       1.0  T
   3    -32.0643108  0.671946E-05  0.165E-02    3.59       1.2  T
   4    -32.0643186 -0.776604E-05  0.495E-03    3.59       4.0  T
   5    -32.0643188 -0.214164E-06  0.204E-03    3.59       9.6  T
   6    -32.0643188 -0.157201E-07  0.935E-04    3.59      21.0  T
   7    -32.0643188 -0.397740E-08  0.255E-04    3.59      76.9  T
   8    -32.0643188 -0.370612E-09  0.134E-04    3.59     146.9  T
   9    -32.0643188 -0.650218E-10  0.435E-05    3.59     451.2  T
  10    -32.0643188 -0.165059E-10  0.176E-05    3.59    1111.6  T
  11    -32.0643188 -0.125766E-11  0.687E-06    3.59    2854.0  T
  12    -32.0643188 -0.106581E-12  0.178E-06    3.59   11038.7  T
     SCC iter.                  ...        0 min,  0.075 sec
     gradient                   ...        0 min,  0.002 sec
 * total energy  :   -31.5496594 Eh     change       -0.1722983E-02 Eh
   gradient norm :     0.0100496 Eh/α   predicted    -0.1475438E-02 ( -14.37%)
   displ. norm   :     0.4963631 α      lambda       -0.1426835E-02
   maximum displ.:     0.3023901 α      in ANC's #5, #2, #9, ...

........................................................................
.............................. CYCLE    6 ..............................
........................................................................

 iter      E             dE          RMSdq      gap      omega  full diag
   1    -32.0660753 -0.320661E+02  0.895E-02    3.60       0.0  T
   2    -32.0660779 -0.264294E-05  0.523E-02    3.60       1.0  T
   3    -32.0660752  0.272400E-05  0.127E-02    3.60       1.5  T
   4    -32.0660784 -0.316959E-05  0.525E-03    3.60       3.7  T
   5    -32.0660787 -0.328276E-06  0.183E-03    3.60      10.7  T
   6    -32.0660787 -0.214459E-07  0.774E-04    3.60      25.3  T
   7    -32.0660787 -0.126943E-08  0.198E-04    3.60      98.8  T
   8    -32.0660787 -0.186844E-09  0.894E-05    3.60     219.3  T
   9    -32.0660787 -0.201155E-10  0.369E-05    3.60     531.4  T
  10    -32.0660787 -0.100115E-10  0.178E-05    3.60    1100.3  T
  11    -32.0660787 -0.169820E-11  0.519E-06    3.60    3777.3  T
  12    -32.0660787 -0.284217E-13  0.205E-06    3.60    9567.3  T
     SCC iter.                  ...        0 min,  0.078 sec
     gradient                   ...        0 min,  0.002 sec
 * total energy  :   -31.5507420 Eh     change       -0.1082672E-02 Eh
   gradient norm :     0.0086243 Eh/α   predicted    -0.8891915E-03 ( -17.87%)
   displ. norm   :     0.4627025 α      lambda       -0.1018513E-02
   maximum displ.:     0.2764626 α      in ANC's #5, #2, #4, ...

........................................................................
.............................. CYCLE    7 ..............................
........................................................................

 iter      E             dE          RMSdq      gap      omega  full diag
   1    -32.0693053 -0.320693E+02  0.808E-02    3.59       0.0  T
   2    -32.0693078 -0.256413E-05  0.474E-02    3.59       1.0  T
   3    -32.0693049  0.292067E-05  0.127E-02    3.59       1.5  T
   4    -32.0693082 -0.328961E-05  0.495E-03    3.59       4.0  T
   5    -32.0693086 -0.399827E-06  0.148E-03    3.59      13.3  T
   6    -32.0693086 -0.591179E-08  0.688E-04    3.59      28.5  T
   7    -32.0693086 -0.911605E-09  0.130E-04    3.59     150.5  T
   8    -32.0693086 -0.407994E-10  0.588E-05    3.59     333.7  T
   9    -32.0693086 -0.198170E-10  0.251E-05    3.59     780.8  T
  10    -32.0693086 -0.307665E-11  0.878E-06    3.59    2232.6  T
  11    -32.0693086 -0.518696E-12  0.436E-06    3.59    4497.2  T
     SCC iter.                  ...        0 min,  0.074 sec
     gradient                   ...        0 min,  0.002 sec
 * total energy  :   -31.5515152 Eh     change       -0.7731924E-03 Eh
   gradient norm :     0.0064482 Eh/α   predicted    -0.6182918E-03 ( -20.03%)
   displ. norm   :     0.4394057 α      lambda       -0.7614362E-03
   maximum displ.:     0.2447184 α      in ANC's #5, #4, #2, ...

........................................................................
.............................. CYCLE    8 ..............................
........................................................................

 iter      E             dE          RMSdq      gap      omega  full diag
   1    -32.0719256 -0.320719E+02  0.822E-02    3.59       0.0  T
   2    -32.0719277 -0.215054E-05  0.474E-02    3.59       1.0  T
   3    -32.0719256  0.216077E-05  0.119E-02    3.59       1.7  T
   4    -32.0719279 -0.234655E-05  0.463E-03    3.59       4.2  T
   5    -32.0719283 -0.389107E-06  0.119E-03    3.59      16.4  T
   6    -32.0719283 -0.588528E-08  0.570E-04    3.59      34.4  T
   7    -32.0719283 -0.374314E-09  0.102E-04    3.59     191.5  T
   8    -32.0719283 -0.420783E-10  0.449E-05    3.59     436.8  T
   9    -32.0719283 -0.837019E-11  0.179E-05    3.59    1093.2  T
  10    -32.0719283 -0.125056E-11  0.807E-06    3.59    2431.3  T
  11    -32.0719283 -0.952127E-12  0.314E-06    3.59    6242.3  T
     SCC iter.                  ...        0 min,  0.076 sec
     gradient                   ...        0 min,  0.002 sec
 * total energy  :   -31.5520969 Eh     change       -0.5816444E-03 Eh
   gradient norm :     0.0072886 Eh/α   predicted    -0.4542447E-03 ( -21.90%)
   displ. norm   :     0.4240275 α      lambda       -0.6195428E-03
   maximum displ.:     0.2235169 α      in ANC's #4, #5, #6, ...

........................................................................
.............................. CYCLE    9 ..............................
........................................................................

 iter      E             dE          RMSdq      gap      omega  full diag
   1    -32.0736731 -0.320737E+02  0.856E-02    3.60       0.0  T
   2    -32.0736751 -0.203802E-05  0.483E-02    3.60       1.0  T
   3    -32.0736729  0.214034E-05  0.144E-02    3.60       1.4  T
   4    -32.0736755 -0.258355E-05  0.361E-03    3.60       5.4  T
   5    -32.0736757 -0.141914E-06  0.150E-03    3.60      13.1  T
   6    -32.0736757 -0.352203E-07  0.539E-04    3.60      36.4  T
   7    -32.0736757 -0.242146E-09  0.968E-05    3.60     202.5  T
   8    -32.0736757 -0.428457E-10  0.409E-05    3.60     479.7  T
   9    -32.0736757 -0.128537E-10  0.187E-05    3.60    1051.2  T
  10    -32.0736757 -0.162004E-11  0.522E-06    3.60    3760.3  T
  11    -32.0736757 -0.234479E-12  0.234E-06    3.60    8396.1  T
     SCC iter.                  ...        0 min,  0.074 sec
     gradient                   ...        0 min,  0.002 sec
 * total energy  :   -31.5525671 Eh     change       -0.4702370E-03 Eh
   gradient norm :     0.0087586 Eh/α   predicted    -0.3654693E-03 ( -22.28%)
   displ. norm   :     0.3898211 α      lambda       -0.5134590E-03
   maximum displ.:     0.2256474 α      in ANC's #4, #6, #5, ...

........................................................................
.............................. CYCLE   10 ..............................
........................................................................

 iter      E             dE          RMSdq      gap      omega  full diag
   1    -32.0743576 -0.320744E+02  0.851E-02    3.60       0.0  T
   2    -32.0743594 -0.180897E-05  0.475E-02    3.60       1.0  T
   3    -32.0743577  0.171857E-05  0.158E-02    3.60       1.2  T
   4    -32.0743598 -0.219189E-05  0.287E-03    3.60       6.8  T
   5    -32.0743599 -0.741910E-07  0.148E-03    3.60      13.2  T
   6    -32.0743600 -0.423915E-07  0.471E-04    3.60      41.7  T
   7    -32.0743600 -0.177216E-09  0.139E-04    3.60     140.7  T
   8    -32.0743600 -0.113715E-09  0.501E-05    3.60     391.8  T
   9    -32.0743600 -0.244711E-10  0.209E-05    3.60     939.1  T
  10    -32.0743600 -0.125766E-11  0.570E-06    3.60    3438.9  T
  11    -32.0743600 -0.262901E-12  0.225E-06    3.60    8714.9  T
     SCC iter.                  ...        0 min,  0.074 sec
     gradient                   ...        0 min,  0.002 sec
 * total energy  :   -31.5529550 Eh     change       -0.3878553E-03 Eh
   gradient norm :     0.0086448 Eh/α   predicted    -0.2957468E-03 ( -23.75%)
   displ. norm   :     0.3529803 α      lambda       -0.4650087E-03
   maximum displ.:     0.2175581 α      in ANC's #4, #6, #5, ...

........................................................................
.............................. CYCLE   11 ..............................
........................................................................

 iter      E             dE          RMSdq      gap      omega  full diag
   1    -32.0747437 -0.320747E+02  0.823E-02    3.61       0.0  T
   2    -32.0747452 -0.153557E-05  0.467E-02    3.61       1.0  T
   3    -32.0747438  0.142929E-05  0.151E-02    3.61       1.3  T
   4    -32.0747457 -0.184306E-05  0.226E-03    3.61       8.7  T
   5    -32.0747457 -0.873904E-07  0.114E-03    3.61      17.2  T
   6    -32.0747457 -0.825082E-08  0.363E-04    3.61      54.0  T
   7    -32.0747457 -0.371138E-09  0.129E-04    3.61     152.5  T
   8    -32.0747457 -0.620517E-10  0.556E-05    3.61     352.6  T
   9    -32.0747457 -0.232134E-10  0.197E-05    3.61     994.8  T
  10    -32.0747457 -0.187583E-11  0.637E-06    3.61    3078.0  T
  11    -32.0747457 -0.234479E-12  0.238E-06    3.61    8227.5  T
     SCC iter.                  ...        0 min,  0.073 sec
     gradient                   ...        0 min,  0.002 sec
 * total energy  :   -31.5533143 Eh     change       -0.3593134E-03 Eh
   gradient norm :     0.0078258 Eh/α   predicted    -0.2614742E-03 ( -27.23%)
   displ. norm   :     0.3926873 α      lambda       -0.5191301E-03
   maximum displ.:     0.2450758 α      in ANC's #4, #6, #3, ...

........................................................................
.............................. CYCLE   12 ..............................
........................................................................

 iter      E             dE          RMSdq      gap      omega  full diag
   1    -32.0736472 -0.320736E+02  0.931E-02    3.62       0.0  T
   2    -32.0736486 -0.141129E-05  0.547E-02    3.61       1.0  T
   3    -32.0736472  0.137110E-05  0.129E-02    3.62       1.5  T
   4    -32.0736490 -0.173976E-05  0.225E-03    3.62       8.7  T
   5    -32.0736491 -0.744579E-07  0.117E-03    3.62      16.8  T
   6    -32.0736491 -0.160593E-07  0.370E-04    3.62      53.0  T
   7    -32.0736491 -0.250402E-09  0.151E-04    3.62     129.5  T
   8    -32.0736491 -0.125610E-09  0.572E-05    3.62     342.6  T
   9    -32.0736491 -0.247837E-10  0.223E-05    3.62     880.1  T
  10    -32.0736491 -0.223821E-11  0.760E-06    3.62    2580.6  T
  11    -32.0736491 -0.390799E-12  0.296E-06    3.62    6615.9  T
     SCC iter.                  ...        0 min,  0.073 sec
     gradient                   ...        0 min,  0.002 sec
 * total energy  :   -31.5537307 Eh     change       -0.4164506E-03 Eh
   gradient norm :     0.0083257 Eh/α   predicted    -0.2996035E-03 ( -28.06%)
   displ. norm   :     0.4652383 α      lambda       -0.7358124E-03
   maximum displ.:     0.2560377 α      in ANC's #4, #3, #6, ...

........................................................................
.............................. CYCLE   13 ..............................
........................................................................

 iter      E             dE          RMSdq      gap      omega  full diag
   1    -32.0752315 -0.320752E+02  0.122E-01    3.62       0.0  T
   2    -32.0752339 -0.239467E-05  0.714E-02    3.62       1.0  T
   3    -32.0752337  0.258838E-06  0.107E-02    3.62       1.8  T
   4    -32.0752343 -0.633953E-06  0.313E-03    3.62       6.3  T
   5    -32.0752343 -0.263537E-07  0.170E-03    3.62      11.5  T
   6    -32.0752344 -0.406920E-07  0.679E-04    3.62      28.9  T
   7    -32.0752344 -0.229660E-08  0.225E-04    3.62      87.0  T
   8    -32.0752344 -0.729209E-09  0.747E-05    3.62     262.5  T
   9    -32.0752344 -0.265317E-10  0.314E-05    3.62     625.4  T
  10    -32.0752344 -0.183320E-11  0.114E-05    3.62    1719.0  T
  11    -32.0752344 -0.141398E-11  0.463E-06    3.62    4237.5  T
  12    -32.0752344 -0.497380E-13  0.107E-06    3.62   18314.6  T
     SCC iter.                  ...        0 min,  0.075 sec
     gradient                   ...        0 min,  0.002 sec
 * total energy  :   -31.5542474 Eh     change       -0.5166641E-03 Eh
   gradient norm :     0.0106433 Eh/α   predicted    -0.4475441E-03 ( -13.38%)
   displ. norm   :     0.6833847 α      lambda       -0.9017180E-03
   maximum displ.:     0.4273891 α      in ANC's #4, #6, #3, ...

........................................................................
.............................. CYCLE   14 ..............................
........................................................................

 iter      E             dE          RMSdq      gap      omega  full diag
   1    -32.0645426 -0.320645E+02  0.180E-01    3.63       0.0  T
   2    -32.0645567 -0.140911E-04  0.101E-01    3.63       1.0  T
   3    -32.0645558  0.938462E-06  0.311E-02    3.62       1.0  T
   4    -32.0645587 -0.292258E-05  0.631E-03    3.62       3.1  T
   5    -32.0645588 -0.897287E-07  0.294E-03    3.62       6.7  T
   6    -32.0645589 -0.749263E-07  0.152E-03    3.62      12.9  T
   7    -32.0645589 -0.169388E-07  0.428E-04    3.62      45.8  T
   8    -32.0645589 -0.883404E-09  0.132E-04    3.62     148.5  T
   9    -32.0645589 -0.750546E-10  0.756E-05    3.62     259.5  T
  10    -32.0645589 -0.211813E-10  0.254E-05    3.62     773.0  T
  11    -32.0645589 -0.677147E-11  0.913E-06    3.62    2148.6  T
  12    -32.0645589 -0.817124E-12  0.247E-06    3.62    7929.8  T
     SCC iter.                  ...        0 min,  0.080 sec
     gradient                   ...        0 min,  0.002 sec
 * total energy  :   -31.5544269 Eh     change       -0.1795553E-03 Eh
   gradient norm :     0.0166129 Eh/α   predicted    -0.6614177E-03 ( 268.36%)
   displ. norm   :     0.1978070 α      lambda       -0.1020902E-02
   maximum displ.:     0.0961115 α      in ANC's #6, #5, #1, ...

........................................................................
.............................. CYCLE   15 ..............................
........................................................................

 iter      E             dE          RMSdq      gap      omega  full diag
   1    -32.0729963 -0.320730E+02  0.906E-02    3.63       0.0  T
   2    -32.0730024 -0.608092E-05  0.451E-02    3.63       1.0  T
   3    -32.0730017  0.652902E-06  0.249E-02    3.63       1.0  T
   4    -32.0730035 -0.179253E-05  0.536E-03    3.63       3.7  T
   5    -32.0730036 -0.406687E-07  0.294E-03    3.63       6.7  T
   6    -32.0730036 -0.430202E-07  0.118E-03    3.63      16.6  T
   7    -32.0730036 -0.765631E-08  0.243E-04    3.63      80.6  T
   8    -32.0730036 -0.971667E-10  0.946E-05    3.63     207.4  T
   9    -32.0730036 -0.952340E-10  0.429E-05    3.63     457.2  T
  10    -32.0730036 -0.635936E-11  0.134E-05    3.63    1465.3  T
  11    -32.0730036 -0.240163E-11  0.423E-06    3.63    4638.6  T
  12    -32.0730036 -0.170530E-12  0.137E-06    3.63   14329.0  T
     SCC iter.                  ...        0 min,  0.088 sec
     gradient                   ...        0 min,  0.002 sec
 * total energy  :   -31.5549765 Eh     change       -0.5495709E-03 Eh
   gradient norm :     0.0068298 Eh/α   predicted    -0.5304236E-03 (  -3.48%)
   displ. norm   :     0.2521744 α      lambda       -0.3520990E-03
   maximum displ.:     0.1606337 α      in ANC's #4, #3, #6, ...

........................................................................
.............................. CYCLE   16 ..............................
........................................................................

 iter      E             dE          RMSdq      gap      omega  full diag
   1    -32.0763955 -0.320764E+02  0.656E-02    3.63       0.0  T
   2    -32.0763972 -0.162883E-05  0.371E-02    3.63       1.0  T
   3    -32.0763972  0.869076E-08  0.733E-03    3.63       2.7  T
   4    -32.0763974 -0.197472E-06  0.237E-03    3.63       8.3  T
   5    -32.0763974 -0.202541E-07  0.801E-04    3.63      24.5  T
   6    -32.0763974 -0.191075E-08  0.372E-04    3.63      52.7  T
   7    -32.0763974 -0.148024E-08  0.172E-04    3.63     114.1  T
   8    -32.0763974 -0.172975E-09  0.405E-05    3.63     483.7  T
   9    -32.0763974 -0.126903E-10  0.185E-05    3.63    1060.9  T
  10    -32.0763974 -0.327560E-11  0.898E-06    3.63    2183.0  T
  11    -32.0763974 -0.255795E-12  0.321E-06    3.63    6103.5  T
     SCC iter.                  ...        0 min,  0.089 sec
     gradient                   ...        0 min,  0.004 sec
 * total energy  :   -31.5552053 Eh     change       -0.2288069E-03 Eh
   gradient norm :     0.0047342 Eh/α   predicted    -0.1872607E-03 ( -18.16%)
   displ. norm   :     0.3916195 α      lambda       -0.2879750E-03
   maximum displ.:     0.2770888 α      in ANC's #4, #3, #1, ...

........................................................................
.............................. CYCLE   17 ..............................
........................................................................

 iter      E             dE          RMSdq      gap      omega  full diag
   1    -32.0748714 -0.320749E+02  0.971E-02    3.63       0.0  T
   2    -32.0748723 -0.959470E-06  0.571E-02    3.63       1.0  T
   3    -32.0748719  0.445833E-06  0.657E-03    3.63       3.0  T
   4    -32.0748726 -0.673058E-06  0.235E-03    3.63       8.3  T
   5    -32.0748726 -0.540901E-07  0.116E-03    3.63      16.9  T
   6    -32.0748726 -0.965792E-08  0.369E-04    3.63      53.1  T
   7    -32.0748726 -0.344116E-09  0.142E-04    3.63     137.7  T
   8    -32.0748726 -0.998241E-10  0.472E-05    3.63     415.5  T
   9    -32.0748726 -0.653699E-11  0.214E-05    3.63     916.7  T
  10    -32.0748726 -0.383693E-11  0.571E-06    3.63    3435.0  T
  11    -32.0748726 -0.206057E-12  0.175E-06    3.63   11216.8  T
     SCC iter.                  ...        0 min,  0.090 sec
     gradient                   ...        0 min,  0.002 sec
 * total energy  :   -31.5553603 Eh     change       -0.1550114E-03 Eh
   gradient norm :     0.0065473 Eh/α   predicted    -0.1660750E-03 (   7.14%)
   displ. norm   :     0.1588331 α      lambda       -0.1324504E-03
   maximum displ.:     0.1227596 α      in ANC's #4, #5, #3, ...

........................................................................
.............................. CYCLE   18 ..............................
........................................................................

 iter      E             dE          RMSdq      gap      omega  full diag
   1    -32.0752111 -0.320752E+02  0.419E-02    3.64       0.0  T
   2    -32.0752122 -0.108557E-05  0.243E-02    3.64       1.0  T
   3    -32.0752116  0.602629E-06  0.895E-03    3.64       2.2  T
   4    -32.0752124 -0.847086E-06  0.167E-03    3.64      11.8  T
   5    -32.0752125 -0.341967E-07  0.852E-04    3.64      23.0  T
   6    -32.0752125 -0.782562E-08  0.287E-04    3.64      68.4  T
   7    -32.0752125 -0.293454E-10  0.105E-04    3.64     187.4  T
   8    -32.0752125 -0.649436E-11  0.406E-05    3.64     482.9  T
   9    -32.0752125 -0.144098E-10  0.177E-05    3.64    1110.0  T
  10    -32.0752125 -0.324718E-11  0.632E-06    3.64    3104.0  T
  11    -32.0752125 -0.127898E-12  0.153E-06    3.64   12806.8  T
     SCC iter.                  ...        0 min,  0.075 sec
     gradient                   ...        0 min,  0.002 sec
 * total energy  :   -31.5554322 Eh     change       -0.7185305E-04 Eh
   gradient norm :     0.0047862 Eh/α   predicted    -0.6789770E-04 (  -5.50%)
   displ. norm   :     0.1380878 α      lambda       -0.1089345E-03
   maximum displ.:     0.1032575 α      in ANC's #4, #5, #1, ...

........................................................................
.............................. CYCLE   19 ..............................
........................................................................

 iter      E             dE          RMSdq      gap      omega  full diag
   1    -32.0771152 -0.320771E+02  0.422E-02    3.64       0.0  T
   2    -32.0771162 -0.996051E-06  0.231E-02    3.64       1.0  T
   3    -32.0771157  0.481305E-06  0.920E-03    3.64       2.1  T
   4    -32.0771163 -0.633939E-06  0.233E-03    3.64       8.4  T
   5    -32.0771164 -0.584173E-07  0.103E-03    3.64      19.1  T
   6    -32.0771164 -0.212859E-07  0.326E-04    3.64      60.1  T
   7    -32.0771164 -0.139089E-09  0.105E-04    3.64     186.7  T
   8    -32.0771164 -0.876383E-10  0.363E-05    3.64     540.2  T
   9    -32.0771164 -0.861888E-11  0.184E-05    3.64    1068.7  T
  10    -32.0771164 -0.987654E-12  0.556E-06    3.64    3526.4  T
  11    -32.0771164 -0.298428E-12  0.182E-06    3.64   10772.6  T
     SCC iter.                  ...        0 min,  0.074 sec
     gradient                   ...        0 min,  0.002 sec
 * total energy  :   -31.5554937 Eh     change       -0.6153432E-04 Eh
   gradient norm :     0.0041623 Eh/α   predicted    -0.5550644E-04 (  -9.80%)
   displ. norm   :     0.1954438 α      lambda       -0.8110086E-04
   maximum displ.:     0.1609372 α      in ANC's #4, #5, #3, ...

........................................................................
.............................. CYCLE   20 ..............................
........................................................................

 iter      E             dE          RMSdq      gap      omega  full diag
   1    -32.0761933 -0.320762E+02  0.520E-02    3.65       0.0  T
   2    -32.0761937 -0.395393E-06  0.304E-02    3.65       1.0  T
   3    -32.0761933  0.436046E-06  0.515E-03    3.65       3.8  T
   4    -32.0761937 -0.468506E-06  0.221E-03    3.65       8.9  T
   5    -32.0761938 -0.857050E-07  0.434E-04    3.65      45.2  T
   6    -32.0761938 -0.224631E-09  0.217E-04    3.65      90.4  T
   7    -32.0761938 -0.352159E-09  0.504E-05    3.65     389.3  T
   8    -32.0761938 -0.113616E-10  0.189E-05    3.65    1038.8  T
   9    -32.0761938 -0.140687E-11  0.760E-06    3.65    2580.5  T
  10    -32.0761938 -0.525802E-12  0.290E-06    3.65    6761.6  T
     SCC iter.                  ...        0 min,  0.074 sec
     gradient                   ...        0 min,  0.002 sec
 * total energy  :   -31.5555504 Eh     change       -0.5664607E-04 Eh
   gradient norm :     0.0035734 Eh/α   predicted    -0.4210020E-04 ( -25.68%)
   displ. norm   :     0.1613012 α      lambda       -0.7218170E-04
   maximum displ.:     0.1350583 α      in ANC's #4, #5, #8, ...
 * RMSD in coord.:     1.0552981 α      energy gain  -0.2836772E-01 Eh

generating ANC from model Hessian ...
Using Lindh-Hessian (1995)
 Shifting diagonal of input Hessian by   9.190504914606493E-003
 Lowest  eigenvalues of input Hessian
    0.000000    0.000000    0.000000    0.000000    0.000000    0.000000
    0.010000    0.010158    0.010666    0.011249    0.012083    0.012896
    0.015049    0.017634    0.018069    0.019470    0.023153    0.024253
 Highest eigenvalues
    1.364482    1.551700    1.577884    1.883151    1.988344    2.005988
 

........................................................................
.............................. CYCLE   21 ..............................
........................................................................

 iter      E             dE          RMSdq      gap      omega  full diag
   1    -32.0768296 -0.320768E+02  0.524E-02    3.65       0.0  T
   2    -32.0768300 -0.363586E-06  0.303E-02    3.65       1.0  T
   3    -32.0768298  0.174785E-06  0.508E-03    3.65       3.9  T
   4    -32.0768300 -0.242774E-06  0.130E-03    3.65      15.1  T
   5    -32.0768300 -0.111540E-07  0.593E-04    3.65      33.1  T
   6    -32.0768300 -0.617098E-08  0.286E-04    3.65      68.6  T
   7    -32.0768300 -0.346191E-09  0.458E-05    3.65     428.6  T
   8    -32.0768300 -0.277467E-10  0.197E-05    3.65     993.3  T
   9    -32.0768300 -0.452616E-11  0.787E-06    3.65    2491.0  T
  10    -32.0768300 -0.312639E-12  0.247E-06    3.65    7924.5  T
     SCC iter.                  ...        0 min,  0.074 sec
     gradient                   ...        0 min,  0.002 sec
 * total energy  :   -31.5555974 Eh     change       -0.4703425E-04 Eh
   gradient norm :     0.0030852 Eh/α   predicted     0.0000000E+00 (-100.00%)
   displ. norm   :     0.0373730 α      lambda       -0.9456606E-05
   maximum displ.:     0.0254093 α      in ANC's #1, #3, #7, ...

........................................................................
.............................. CYCLE   22 ..............................
........................................................................

 iter      E             dE          RMSdq      gap      omega  full diag
   1    -32.0768578 -0.320769E+02  0.179E-02    3.65       0.0  T
   2    -32.0768579 -0.713979E-07  0.106E-02    3.65       1.9  T
   3    -32.0768578  0.699755E-07  0.250E-03    3.65       7.8  T
   4    -32.0768579 -0.871066E-07  0.591E-04    3.65      33.2  T
   5    -32.0768579 -0.256073E-08  0.332E-04    3.65      59.1  T
   6    -32.0768579 -0.184676E-08  0.138E-04    3.65     142.2  T
   7    -32.0768579 -0.313563E-10  0.418E-05    3.65     469.4  T
   8    -32.0768579 -0.219487E-10  0.890E-06    3.65    2202.9  T
   9    -32.0768579 -0.106581E-11  0.441E-06    3.65    4445.4  T
     SCC iter.                  ...        0 min,  0.080 sec
     gradient                   ...        0 min,  0.002 sec
 * total energy  :   -31.5556244 Eh     change       -0.2698912E-04 Eh
   gradient norm :     0.0011853 Eh/α   predicted    -0.1774672E-04 ( -34.24%)
   displ. norm   :     0.1074183 α      lambda       -0.3300208E-04
   maximum displ.:     0.0761944 α      in ANC's #1, #3, #7, ...

........................................................................
.............................. CYCLE   23 ..............................
........................................................................

 iter      E             dE          RMSdq      gap      omega  full diag
   1    -32.0766857 -0.320767E+02  0.426E-02    3.64       0.0  T
   2    -32.0766859 -0.249644E-06  0.253E-02    3.64       1.0  T
   3    -32.0766857  0.231558E-06  0.467E-03    3.64       4.2  T
   4    -32.0766860 -0.288285E-06  0.887E-04    3.64      22.1  T
   5    -32.0766860 -0.968002E-08  0.541E-04    3.64      36.3  T
   6    -32.0766860 -0.333191E-08  0.210E-04    3.64      93.3  T
   7    -32.0766860 -0.853717E-10  0.691E-05    3.64     284.0  T
   8    -32.0766860 -0.506546E-10  0.175E-05    3.64    1122.9  T
   9    -32.0766860 -0.467537E-11  0.749E-06    3.64    2618.2  T
  10    -32.0766860 -0.270006E-12  0.300E-06    3.64    6528.3  T
     SCC iter.                  ...        0 min,  0.073 sec
     gradient                   ...        0 min,  0.002 sec
 * total energy  :   -31.5556532 Eh     change       -0.2881509E-04 Eh
   gradient norm :     0.0021235 Eh/α   predicted    -0.1658674E-04 ( -42.44%)
   displ. norm   :     0.0477783 α      lambda       -0.1579512E-04
   maximum displ.:     0.0353843 α      in ANC's #1, #3, #10, ...

........................................................................
.............................. CYCLE   24 ..............................
........................................................................

 iter      E             dE          RMSdq      gap      omega  full diag
   1    -32.0766990 -0.320767E+02  0.173E-02    3.64       0.0  T
   2    -32.0766991 -0.186540E-07  0.101E-02    3.64       1.9  T
   3    -32.0766990  0.154103E-07  0.103E-03    3.64      19.0  T
   4    -32.0766991 -0.179501E-07  0.441E-04    3.64      44.4  T
   5    -32.0766991 -0.359901E-08  0.124E-04    3.64     158.2  T
   6    -32.0766991 -0.318181E-10  0.542E-05    3.64     362.0  T
   7    -32.0766991 -0.195399E-11  0.168E-05    3.64    1167.7  T
   8    -32.0766991 -0.294165E-11  0.460E-06    3.64    4260.5  T
   9    -32.0766991 -0.355271E-12  0.208E-06    3.64    9420.2  T
     SCC iter.                  ...        0 min,  0.073 sec
     gradient                   ...        0 min,  0.002 sec
 * total energy  :   -31.5556681 Eh     change       -0.1485563E-04 Eh
   gradient norm :     0.0019050 Eh/α   predicted    -0.7916957E-05 ( -46.71%)
   displ. norm   :     0.1546247 α      lambda       -0.3586255E-04
   maximum displ.:     0.1079534 α      in ANC's #1, #3, #5, ...

........................................................................
.............................. CYCLE   25 ..............................
........................................................................

 iter      E             dE          RMSdq      gap      omega  full diag
   1    -32.0766978 -0.320767E+02  0.544E-02    3.64       0.0  T
   2    -32.0766980 -0.198646E-06  0.318E-02    3.65       1.0  T
   3    -32.0766976  0.373531E-06  0.464E-03    3.65       4.2  T
   4    -32.0766980 -0.438724E-06  0.131E-03    3.65      15.0  T
   5    -32.0766980 -0.229301E-07  0.390E-04    3.65      50.3  T
   6    -32.0766980 -0.913545E-10  0.156E-04    3.65     125.3  T
   7    -32.0766980 -0.112358E-09  0.404E-05    3.65     485.4  T
   8    -32.0766980 -0.242935E-10  0.138E-05    3.65    1425.0  T
   9    -32.0766980 -0.153477E-11  0.719E-06    3.65    2728.0  T
  10    -32.0766980 -0.262901E-12  0.165E-06    3.65   11912.0  T
     SCC iter.                  ...        0 min,  0.073 sec
     gradient                   ...        0 min,  0.002 sec
 * total energy  :   -31.5557090 Eh     change       -0.4091352E-04 Eh
   gradient norm :     0.0007585 Eh/α   predicted    -0.1812269E-04 ( -55.70%)
   displ. norm   :     0.1607649 α      lambda       -0.2301757E-04
   maximum displ.:     0.1152843 α      in ANC's #1, #3, #5, ...

........................................................................
.............................. CYCLE   26 ..............................
........................................................................

 iter      E             dE          RMSdq      gap      omega  full diag
   1    -32.0765796 -0.320766E+02  0.575E-02    3.64       0.0  T
   2    -32.0765798 -0.182737E-06  0.336E-02    3.65       1.0  T
   3    -32.0765796  0.196348E-06  0.373E-03    3.65       5.3  T
   4    -32.0765798 -0.240447E-06  0.132E-03    3.65      14.9  T
   5    -32.0765799 -0.250187E-07  0.393E-04    3.65      49.9  T
   6    -32.0765799 -0.421750E-09  0.166E-04    3.65     117.9  T
   7    -32.0765799 -0.731646E-10  0.383E-05    3.65     512.6  T
   8    -32.0765799 -0.137632E-10  0.158E-05    3.65    1240.7  T
   9    -32.0765799 -0.348166E-11  0.491E-06    3.65    3992.2  T
  10    -32.0765799 -0.113687E-12  0.193E-06    3.65   10161.2  T
     SCC iter.                  ...        0 min,  0.091 sec
     gradient                   ...        0 min,  0.004 sec
 * total energy  :   -31.5557363 Eh     change       -0.2735553E-04 Eh
   gradient norm :     0.0012071 Eh/α   predicted    -0.1164392E-04 ( -57.43%)
   displ. norm   :     0.1287112 α      lambda       -0.1662824E-04
   maximum displ.:     0.0954227 α      in ANC's #1, #3, #5, ...

........................................................................
.............................. CYCLE   27 ..............................
........................................................................

 iter      E             dE          RMSdq      gap      omega  full diag
   1    -32.0768246 -0.320768E+02  0.465E-02    3.64       0.0  T
   2    -32.0768247 -0.138443E-06  0.273E-02    3.64       1.0  T
   3    -32.0768247  0.475525E-07  0.223E-03    3.64       8.8  T
   4    -32.0768248 -0.660411E-07  0.104E-03    3.64      18.8  T
   5    -32.0768248 -0.182874E-07  0.339E-04    3.64      57.8  T
   6    -32.0768248 -0.692665E-09  0.152E-04    3.64     128.9  T
   7    -32.0768248 -0.375167E-11  0.412E-05    3.64     476.5  T
   8    -32.0768248 -0.189928E-10  0.181E-05    3.64    1084.2  T
   9    -32.0768248 -0.497380E-11  0.487E-06    3.64    4030.5  T
  10    -32.0768248 -0.255795E-12  0.190E-06    3.64   10334.1  T
     SCC iter.                  ...        0 min,  0.083 sec
     gradient                   ...        0 min,  0.002 sec
 * total energy  :   -31.5557571 Eh     change       -0.2079622E-04 Eh
   gradient norm :     0.0009287 Eh/α   predicted    -0.8375819E-05 ( -59.72%)
   displ. norm   :     0.1196340 α      lambda       -0.1507779E-04
   maximum displ.:     0.0912305 α      in ANC's #1, #5, #3, ...

........................................................................
.............................. CYCLE   28 ..............................
........................................................................

 iter      E             dE          RMSdq      gap      omega  full diag
   1    -32.0770245 -0.320770E+02  0.454E-02    3.64       0.0  T
   2    -32.0770246 -0.126682E-06  0.265E-02    3.65       1.0  T
   3    -32.0770246  0.306852E-07  0.235E-03    3.65       8.3  T
   4    -32.0770246 -0.557072E-07  0.929E-04    3.65      21.1  T
   5    -32.0770246 -0.839649E-08  0.352E-04    3.65      55.7  T
   6    -32.0770246 -0.179144E-08  0.135E-04    3.65     145.5  T
   7    -32.0770246 -0.324576E-10  0.424E-05    3.65     462.9  T
   8    -32.0770246 -0.118447E-10  0.144E-05    3.65    1359.4  T
   9    -32.0770246 -0.351008E-11  0.446E-06    3.65    4400.7  T
  10    -32.0770246 -0.710543E-13  0.194E-06    3.65   10107.3  T
     SCC iter.                  ...        0 min,  0.080 sec
     gradient                   ...        0 min,  0.004 sec
 * total energy  :   -31.5557757 Eh     change       -0.1857018E-04 Eh
   gradient norm :     0.0006075 Eh/α   predicted    -0.7587306E-05 ( -59.14%)
   displ. norm   :     0.1063926 α      lambda       -0.1188475E-04
   maximum displ.:     0.0835558 α      in ANC's #1, #5, #3, ...

........................................................................
.............................. CYCLE   29 ..............................
........................................................................

 iter      E             dE          RMSdq      gap      omega  full diag
   1    -32.0770218 -0.320770E+02  0.390E-02    3.64       0.0  T
   2    -32.0770220 -0.103940E-06  0.228E-02    3.64       1.0  T
   3    -32.0770219  0.318549E-07  0.187E-03    3.64      10.5  T
   4    -32.0770220 -0.403556E-07  0.100E-03    3.64      19.5  T
   5    -32.0770220 -0.198945E-07  0.258E-04    3.64      76.2  T
   6    -32.0770220 -0.369155E-09  0.128E-04    3.64     152.7  T
   7    -32.0770220 -0.107079E-10  0.367E-05    3.64     533.7  T
   8    -32.0770220 -0.145377E-10  0.170E-05    3.64    1152.3  T
   9    -32.0770220 -0.481037E-11  0.303E-06    3.64    6471.0  T
  10    -32.0770220 -0.355271E-13  0.150E-06    3.64   13118.1  T
     SCC iter.                  ...        0 min,  0.084 sec
     gradient                   ...        0 min,  0.002 sec
 * total energy  :   -31.5557903 Eh     change       -0.1456663E-04 Eh
   gradient norm :     0.0004615 Eh/α   predicted    -0.5974146E-05 ( -58.99%)
   displ. norm   :     0.0735582 α      lambda       -0.8097931E-05
   maximum displ.:     0.0615185 α      in ANC's #1, #5, #2, ...

........................................................................
.............................. CYCLE   30 ..............................
........................................................................

 iter      E             dE          RMSdq      gap      omega  full diag
   1    -32.0771050 -0.320771E+02  0.278E-02    3.64       0.0  T
   2    -32.0771051 -0.609264E-07  0.163E-02    3.64       1.2  T
   3    -32.0771051  0.216183E-07  0.163E-03    3.64      12.0  T
   4    -32.0771051 -0.305837E-07  0.630E-04    3.64      31.1  T
   5    -32.0771051 -0.545488E-08  0.229E-04    3.64      85.6  T
   6    -32.0771051 -0.641414E-09  0.107E-04    3.64     183.2  T
   7    -32.0771051 -0.239240E-10  0.263E-05    3.64     744.7  T
   8    -32.0771051 -0.160583E-11  0.120E-05    3.64    1639.1  T
   9    -32.0771051 -0.203215E-11  0.381E-06    3.64    5145.9  T
  10    -32.0771051 -0.106581E-12  0.127E-06    3.64   15427.0  T
     SCC iter.                  ...        0 min,  0.077 sec
     gradient                   ...        0 min,  0.002 sec
 * total energy  :   -31.5558004 Eh     change       -0.1010958E-04 Eh
   gradient norm :     0.0005443 Eh/α   predicted    -0.4059965E-05 ( -59.84%)
   displ. norm   :     0.0533831 α      lambda       -0.5780803E-05
   maximum displ.:     0.0464108 α      in ANC's #1, #2, #5, ...

........................................................................
.............................. CYCLE   31 ..............................
........................................................................

 iter      E             dE          RMSdq      gap      omega  full diag
   1    -32.0772399 -0.320772E+02  0.219E-02    3.64       0.0  T
   2    -32.0772399 -0.254271E-07  0.128E-02    3.64       1.5  T
   3    -32.0772399  0.308054E-07  0.145E-03    3.64      13.5  T
   4    -32.0772399 -0.371378E-07  0.436E-04    3.64      44.9  T
   5    -32.0772399 -0.305784E-08  0.130E-04    3.64     150.8  T
   6    -32.0772399 -0.156440E-09  0.667E-05    3.64     294.0  T
   7    -32.0772399 -0.111768E-10  0.138E-05    3.64    1425.7  T
   8    -32.0772399 -0.220268E-11  0.471E-06    3.64    4166.3  T
   9    -32.0772399 -0.270006E-12  0.202E-06    3.64    9721.2  T
     SCC iter.                  ...        0 min,  0.076 sec
     gradient                   ...        0 min,  0.002 sec
 * total energy  :   -31.5558083 Eh     change       -0.7914787E-05 Eh
   gradient norm :     0.0004761 Eh/α   predicted    -0.2894660E-05 ( -63.43%)
   displ. norm   :     0.0450112 α      lambda       -0.5179040E-05
   maximum displ.:     0.0386771 α      in ANC's #1, #2, #3, ...

........................................................................
.............................. CYCLE   32 ..............................
........................................................................

 iter      E             dE          RMSdq      gap      omega  full diag
   1    -32.0771629 -0.320772E+02  0.191E-02    3.64       0.0  T
   2    -32.0771629 -0.191289E-07  0.112E-02    3.64       1.8  T
   3    -32.0771629  0.264841E-07  0.127E-03    3.64      15.5  T
   4    -32.0771629 -0.325080E-07  0.350E-04    3.64      56.0  T
   5    -32.0771629 -0.170572E-08  0.112E-04    3.64     175.6  T
   6    -32.0771629 -0.643752E-10  0.589E-05    3.64     332.7  T
   7    -32.0771629 -0.118163E-10  0.135E-05    3.64    1448.2  T
   8    -32.0771629 -0.625278E-12  0.434E-06    3.64    4522.2  T
   9    -32.0771629 -0.206057E-12  0.197E-06    3.64    9957.8  T
     SCC iter.                  ...        0 min,  0.078 sec
     gradient                   ...        0 min,  0.002 sec
 * total energy  :   -31.5558156 Eh     change       -0.7279857E-05 Eh
   gradient norm :     0.0002862 Eh/α   predicted    -0.2593882E-05 ( -64.37%)
   displ. norm   :     0.0506106 α      lambda       -0.5680185E-05
   maximum displ.:     0.0396967 α      in ANC's #1, #2, #3, ...

........................................................................
.............................. CYCLE   33 ..............................
........................................................................

 iter      E             dE          RMSdq      gap      omega  full diag
   1    -32.0771740 -0.320772E+02  0.220E-02    3.64       0.0  T
   2    -32.0771740 -0.261378E-07  0.129E-02    3.64       1.5  T
   3    -32.0771740  0.183727E-07  0.124E-03    3.64      15.8  T
   4    -32.0771740 -0.233887E-07  0.422E-04    3.64      46.4  T
   5    -32.0771740 -0.289434E-08  0.136E-04    3.64     144.1  T
   6    -32.0771740 -0.204054E-09  0.689E-05    3.64     284.6  T
   7    -32.0771740 -0.129390E-10  0.130E-05    3.64    1506.1  T
   8    -32.0771740 -0.660805E-12  0.365E-06    3.64    5369.2  T
   9    -32.0771740 -0.213163E-13  0.197E-06    3.64    9968.7  T
     SCC iter.                  ...        0 min,  0.080 sec
     gradient                   ...        0 min,  0.002 sec
 * total energy  :   -31.5558234 Eh     change       -0.7833828E-05 Eh
   gradient norm :     0.0003251 Eh/α   predicted    -0.2845114E-05 ( -63.68%)
   displ. norm   :     0.0591091 α      lambda       -0.6045634E-05
   maximum displ.:     0.0452598 α      in ANC's #1, #3, #2, ...

........................................................................
.............................. CYCLE   34 ..............................
........................................................................

 iter      E             dE          RMSdq      gap      omega  full diag
   1    -32.0771399 -0.320771E+02  0.251E-02    3.64       0.0  T
   2    -32.0771399 -0.340793E-07  0.147E-02    3.64       1.3  T
   3    -32.0771399  0.165926E-07  0.127E-03    3.64      15.4  T
   4    -32.0771400 -0.227472E-07  0.509E-04    3.64      38.6  T
   5    -32.0771400 -0.379856E-08  0.163E-04    3.64     120.3  T
   6    -32.0771400 -0.212090E-09  0.834E-05    3.64     235.2  T
   7    -32.0771400 -0.228439E-10  0.183E-05    3.64    1071.9  T
   8    -32.0771400 -0.242295E-11  0.507E-06    3.64    3871.3  T
   9    -32.0771400 -0.234479E-12  0.271E-06    3.64    7244.4  T
     SCC iter.                  ...        0 min,  0.079 sec
     gradient                   ...        0 min,  0.002 sec
 * total energy  :   -31.5558315 Eh     change       -0.8126307E-05 Eh
   gradient norm :     0.0002722 Eh/α   predicted    -0.3028586E-05 ( -62.73%)
   displ. norm   :     0.0583508 α      lambda       -0.5181308E-05
   maximum displ.:     0.0452150 α      in ANC's #1, #3, #2, ...

........................................................................
.............................. CYCLE   35 ..............................
........................................................................

 iter      E             dE          RMSdq      gap      omega  full diag
   1    -32.0771031 -0.320771E+02  0.245E-02    3.64       0.0  T
   2    -32.0771032 -0.328710E-07  0.144E-02    3.64       1.4  T
   3    -32.0771031  0.127395E-07  0.131E-03    3.64      14.9  T
   4    -32.0771032 -0.200473E-07  0.394E-04    3.64      49.8  T
   5    -32.0771032 -0.150968E-08  0.176E-04    3.64     111.3  T
   6    -32.0771032 -0.385413E-09  0.815E-05    3.64     240.5  T
   7    -32.0771032 -0.259703E-10  0.175E-05    3.64    1122.2  T
   8    -32.0771032 -0.189715E-11  0.543E-06    3.64    3609.7  T
   9    -32.0771032 -0.341061E-12  0.280E-06    3.64    7003.1  T
     SCC iter.                  ...        0 min,  0.077 sec
     gradient                   ...        0 min,  0.002 sec
 * total energy  :   -31.5558384 Eh     change       -0.6912114E-05 Eh
   gradient norm :     0.0002455 Eh/α   predicted    -0.2597494E-05 ( -62.42%)
   displ. norm   :     0.0504473 α      lambda       -0.4114236E-05
   maximum displ.:     0.0402713 α      in ANC's #1, #3, #5, ...

........................................................................
.............................. CYCLE   36 ..............................
........................................................................

 iter      E             dE          RMSdq      gap      omega  full diag
   1    -32.0771032 -0.320771E+02  0.206E-02    3.64       0.0  T
   2    -32.0771032 -0.253718E-07  0.120E-02    3.64       1.6  T
   3    -32.0771032  0.243952E-08  0.920E-04    3.64      21.3  T
   4    -32.0771032 -0.713583E-08  0.360E-04    3.64      54.5  T
   5    -32.0771032 -0.115774E-08  0.143E-04    3.64     137.4  T
   6    -32.0771032 -0.261508E-09  0.667E-05    3.64     293.9  T
   7    -32.0771032 -0.118163E-10  0.150E-05    3.64    1310.0  T
   8    -32.0771032 -0.245137E-11  0.442E-06    3.64    4435.2  T
   9    -32.0771032 -0.241585E-12  0.247E-06    3.64    7952.9  T
     SCC iter.                  ...        0 min,  0.074 sec
     gradient                   ...        0 min,  0.002 sec
 * total energy  :   -31.5558441 Eh     change       -0.5651134E-05 Eh
   gradient norm :     0.0002093 Eh/α   predicted    -0.2062534E-05 ( -63.50%)
   displ. norm   :     0.0470731 α      lambda       -0.3834446E-05
   maximum displ.:     0.0379247 α      in ANC's #1, #3, #6, ...

........................................................................
.............................. CYCLE   37 ..............................
........................................................................

 iter      E             dE          RMSdq      gap      omega  full diag
   1    -32.0771124 -0.320771E+02  0.185E-02    3.64       0.0  T
   2    -32.0771124 -0.204942E-07  0.108E-02    3.64       1.8  T
   3    -32.0771124  0.263037E-08  0.924E-04    3.64      21.2  T
   4    -32.0771124 -0.706611E-08  0.251E-04    3.64      78.2  T
   5    -32.0771124 -0.252470E-09  0.111E-04    3.64     177.5  T
   6    -32.0771124 -0.126398E-09  0.524E-05    3.64     374.0  T
   7    -32.0771124 -0.935074E-11  0.137E-05    3.64    1427.6  T
   8    -32.0771124 -0.966338E-12  0.385E-06    3.64    5088.4  T
   9    -32.0771124 -0.163425E-12  0.246E-06    3.64    7974.8  T
     SCC iter.                  ...        0 min,  0.076 sec
     gradient                   ...        0 min,  0.002 sec
 * total energy  :   -31.5558495 Eh     change       -0.5451826E-05 Eh
   gradient norm :     0.0002019 Eh/α   predicted    -0.1922084E-05 ( -64.74%)
   displ. norm   :     0.0545154 α      lambda       -0.4535068E-05
   maximum displ.:     0.0427137 α      in ANC's #1, #3, #2, ...

........................................................................
.............................. CYCLE   38 ..............................
........................................................................

 iter      E             dE          RMSdq      gap      omega  full diag
   1    -32.0771250 -0.320771E+02  0.202E-02    3.64       0.0  T
   2    -32.0771250 -0.255228E-07  0.118E-02    3.64       1.7  T
   3    -32.0771250  0.287717E-08  0.103E-03    3.64      19.1  T
   4    -32.0771250 -0.856737E-08  0.289E-04    3.64      67.8  T
   5    -32.0771250 -0.376843E-09  0.123E-04    3.64     159.0  T
   6    -32.0771250 -0.164114E-09  0.600E-05    3.64     327.1  T
   7    -32.0771250 -0.148788E-10  0.114E-05    3.64    1715.9  T
   8    -32.0771250 -0.454747E-12  0.527E-06    3.64    3721.9  T
   9    -32.0771250 -0.220268E-12  0.211E-06    3.64    9302.8  T
     SCC iter.                  ...        0 min,  0.076 sec
     gradient                   ...        0 min,  0.002 sec
 * total energy  :   -31.5558560 Eh     change       -0.6437424E-05 Eh
   gradient norm :     0.0001953 Eh/α   predicted    -0.2271258E-05 ( -64.72%)
   displ. norm   :     0.0672463 α      lambda       -0.5475249E-05
   maximum displ.:     0.0523277 α      in ANC's #1, #3, #2, ...

........................................................................
.............................. CYCLE   39 ..............................
........................................................................

 iter      E             dE          RMSdq      gap      omega  full diag
   1    -32.0770768 -0.320771E+02  0.248E-02    3.64       0.0  T
   2    -32.0770769 -0.451013E-07  0.145E-02    3.64       1.4  T
   3    -32.0770769  0.314498E-08  0.116E-03    3.64      16.9  T
   4    -32.0770769 -0.103085E-07  0.429E-04    3.64      45.7  T
   5    -32.0770769 -0.154863E-08  0.146E-04    3.64     134.4  T
   6    -32.0770769 -0.294669E-09  0.665E-05    3.64     295.1  T
   7    -32.0770769 -0.150777E-10  0.176E-05    3.64    1111.4  T
   8    -32.0770769 -0.746070E-12  0.808E-06    3.64    2427.0  T
   9    -32.0770769 -0.646594E-12  0.278E-06    3.64    7057.8  T
     SCC iter.                  ...        0 min,  0.076 sec
     gradient                   ...        0 min,  0.002 sec
 * total energy  :   -31.5558636 Eh     change       -0.7602713E-05 Eh
   gradient norm :     0.0002282 Eh/α   predicted    -0.2745452E-05 ( -63.89%)
   displ. norm   :     0.0777695 α      lambda       -0.5796452E-05
   maximum displ.:     0.0605938 α      in ANC's #1, #2, #3, ...

........................................................................
.............................. CYCLE   40 ..............................
........................................................................

 iter      E             dE          RMSdq      gap      omega  full diag
   1    -32.0771288 -0.320771E+02  0.283E-02    3.64       0.0  T
   2    -32.0771289 -0.533056E-07  0.166E-02    3.64       1.2  T
   3    -32.0771289  0.867725E-08  0.146E-03    3.64      13.4  T
   4    -32.0771289 -0.195736E-07  0.448E-04    3.64      43.8  T
   5    -32.0771289 -0.151786E-08  0.184E-04    3.64     106.4  T
   6    -32.0771289 -0.517296E-09  0.885E-05    3.64     221.6  T
   7    -32.0771289 -0.248264E-10  0.174E-05    3.64    1130.1  T
   8    -32.0771289 -0.221689E-11  0.860E-06    3.64    2280.8  T
   9    -32.0771289 -0.795808E-12  0.309E-06    3.64    6356.3  T
     SCC iter.                  ...        0 min,  0.076 sec
     gradient                   ...        0 min,  0.002 sec
 * total energy  :   -31.5558715 Eh     change       -0.7887542E-05 Eh
   gradient norm :     0.0001684 Eh/α   predicted    -0.2909141E-05 ( -63.12%)
   displ. norm   :     0.0760387 α      lambda       -0.5010769E-05
   maximum displ.:     0.0606207 α      in ANC's #1, #2, #3, ...

........................................................................
.............................. CYCLE   41 ..............................
........................................................................

 iter      E             dE          RMSdq      gap      omega  full diag
   1    -32.0770869 -0.320771E+02  0.283E-02    3.64       0.0  T
   2    -32.0770870 -0.568819E-07  0.166E-02    3.64       1.2  T
   3    -32.0770870  0.676575E-08  0.132E-03    3.64      14.9  T
   4    -32.0770870 -0.153773E-07  0.536E-04    3.64      36.6  T
   5    -32.0770870 -0.330571E-08  0.175E-04    3.64     112.2  T
   6    -32.0770870 -0.453745E-09  0.775E-05    3.64     253.1  T
   7    -32.0770870 -0.115463E-10  0.199E-05    3.64     984.5  T
   8    -32.0770870 -0.287059E-11  0.936E-06    3.64    2094.7  T
   9    -32.0770870 -0.101608E-11  0.282E-06    3.64    6962.4  T
     SCC iter.                  ...        0 min,  0.076 sec
     gradient                   ...        0 min,  0.002 sec
 * total energy  :   -31.5558782 Eh     change       -0.6738018E-05 Eh
   gradient norm :     0.0001891 Eh/α   predicted    -0.2512277E-05 ( -62.71%)
   displ. norm   :     0.0595812 α      lambda       -0.3515561E-05
   maximum displ.:     0.0490940 α      in ANC's #1, #2, #3, ...

........................................................................
.............................. CYCLE   42 ..............................
........................................................................

 iter      E             dE          RMSdq      gap      omega  full diag
   1    -32.0771320 -0.320771E+02  0.228E-02    3.64       0.0  T
   2    -32.0771320 -0.317252E-07  0.134E-02    3.64       1.5  T
   3    -32.0771320  0.396673E-08  0.103E-03    3.64      19.1  T
   4    -32.0771320 -0.103804E-07  0.368E-04    3.64      53.2  T
   5    -32.0771320 -0.129921E-08  0.134E-04    3.64     145.9  T
   6    -32.0771320 -0.258680E-09  0.647E-05    3.64     303.0  T
   7    -32.0771320 -0.114326E-10  0.134E-05    3.64    1464.5  T
   8    -32.0771320 -0.144951E-11  0.690E-06    3.64    2842.3  T
   9    -32.0771320 -0.540012E-12  0.225E-06    3.64    8705.6  T
     SCC iter.                  ...        0 min,  0.075 sec
     gradient                   ...        0 min,  0.002 sec
 * total energy  :   -31.5558830 Eh     change       -0.4790477E-05 Eh
   gradient norm :     0.0001665 Eh/α   predicted    -0.1761699E-05 ( -63.22%)
   displ. norm   :     0.0426364 α      lambda       -0.2469140E-05
   maximum displ.:     0.0366379 α      in ANC's #1, #2, #5, ...
 * RMSD in coord.:     0.2648999 α      energy gain  -0.3326318E-03 Eh

generating ANC from model Hessian ...
Using Lindh-Hessian (1995)
 Shifting diagonal of input Hessian by   9.230041627484867E-003
 Lowest  eigenvalues of input Hessian
    0.000000    0.000000    0.000000    0.000000    0.000000    0.000000
    0.010000    0.010232    0.010738    0.011284    0.012149    0.012997
    0.015046    0.017723    0.018210    0.019571    0.023969    0.024344
 Highest eigenvalues
    1.364547    1.552341    1.576799    1.881217    1.987711    2.005743
 

........................................................................
.............................. CYCLE   43 ..............................
........................................................................

 iter      E             dE          RMSdq      gap      omega  full diag
   1    -32.0771628 -0.320772E+02  0.169E-02    3.64       0.0  T
   2    -32.0771628 -0.173833E-07  0.992E-03    3.64       2.0  T
   3    -32.0771628  0.338191E-08  0.767E-04    3.64      25.6  T
   4    -32.0771628 -0.656834E-08  0.306E-04    3.64      64.1  T
   5    -32.0771628 -0.116304E-08  0.101E-04    3.64     193.6  T
   6    -32.0771628 -0.137803E-09  0.460E-05    3.64     426.7  T
   7    -32.0771628 -0.347455E-11  0.119E-05    3.64    1644.8  T
   8    -32.0771628 -0.130029E-11  0.508E-06    3.64    3864.1  T
   9    -32.0771628 -0.333955E-12  0.159E-06    3.64   12336.5  T
     SCC iter.                  ...        0 min,  0.075 sec
     gradient                   ...        0 min,  0.002 sec
 * total energy  :   -31.5558864 Eh     change       -0.3434089E-05 Eh
   gradient norm :     0.0001676 Eh/α   predicted     0.0000000E+00 (-100.00%)
   displ. norm   :     0.0169255 α      lambda       -0.4362484E-07
   maximum displ.:     0.0135914 α      in ANC's #1, #2, #3, ...

........................................................................
.............................. CYCLE   44 ..............................
........................................................................

 iter      E             dE          RMSdq      gap      omega  full diag
   1    -32.0771849 -0.320772E+02  0.703E-03    3.64       0.0  T
   2    -32.0771850 -0.285696E-08  0.411E-03    3.64       4.8  T
   3    -32.0771849  0.145310E-08  0.348E-04    3.64      56.3  T
   4    -32.0771850 -0.192459E-08  0.146E-04    3.64     134.5  T
   5    -32.0771850 -0.391033E-09  0.443E-05    3.64     442.5  T
   6    -32.0771850 -0.154756E-10  0.229E-05    3.64     855.7  T
   7    -32.0771850 -0.852651E-12  0.553E-06    3.64    3544.8  T
   8    -32.0771850 -0.461853E-12  0.167E-06    3.64   11734.2  T
     SCC iter.                  ...        0 min,  0.074 sec
     gradient                   ...        0 min,  0.003 sec
 * total energy  :   -31.5558883 Eh     change       -0.1900761E-05 Eh
   gradient norm :     0.0001389 Eh/α   predicted    -0.6716200E-06 ( -64.67%)
   displ. norm   :     0.0362756 α      lambda       -0.2614325E-05
   maximum displ.:     0.0251618 α      in ANC's #1, #2, #3, ...

........................................................................
.............................. CYCLE   45 ..............................
........................................................................

 iter      E             dE          RMSdq      gap      omega  full diag
   1    -32.0771983 -0.320772E+02  0.140E-02    3.64       0.0  T
   2    -32.0771983 -0.926876E-08  0.820E-03    3.64       2.4  T
   3    -32.0771983  0.105618E-07  0.854E-04    3.64      23.0  T
   4    -32.0771983 -0.136567E-07  0.223E-04    3.64      88.1  T
   5    -32.0771983 -0.609298E-09  0.909E-05    3.64     215.8  T
   6    -32.0771983 -0.535749E-10  0.429E-05    3.64     456.8  T
   7    -32.0771983 -0.642331E-11  0.982E-06    3.64    1997.5  T
   8    -32.0771983 -0.107292E-11  0.389E-06    3.64    5047.9  T
     SCC iter.                  ...        0 min,  0.074 sec
     gradient                   ...        0 min,  0.002 sec
 * total energy  :   -31.5558920 Eh     change       -0.3624917E-05 Eh
   gradient norm :     0.0001951 Eh/α   predicted    -0.1308110E-05 ( -63.91%)
   displ. norm   :     0.0665522 α      lambda       -0.4196149E-05
   maximum displ.:     0.0450952 α      in ANC's #1, #2, #3, ...

........................................................................
.............................. CYCLE   46 ..............................
........................................................................

 iter      E             dE          RMSdq      gap      omega  full diag
   1    -32.0771651 -0.320772E+02  0.254E-02    3.64       0.0  T
   2    -32.0771652 -0.306817E-07  0.149E-02    3.64       1.3  T
   3    -32.0771651  0.235986E-07  0.128E-03    3.64      15.3  T
   4    -32.0771652 -0.307602E-07  0.503E-04    3.64      39.0  T
   5    -32.0771652 -0.416137E-08  0.150E-04    3.64     130.5  T
   6    -32.0771652 -0.875744E-10  0.770E-05    3.64     254.6  T
   7    -32.0771652 -0.106368E-10  0.174E-05    3.64    1129.2  T
   8    -32.0771652 -0.422773E-11  0.600E-06    3.64    3270.1  T
   9    -32.0771652 -0.603961E-12  0.228E-06    3.64    8610.0  T
     SCC iter.                  ...        0 min,  0.074 sec
     gradient                   ...        0 min,  0.002 sec
 * total energy  :   -31.5558974 Eh     change       -0.5418244E-05 Eh
   gradient norm :     0.0001612 Eh/α   predicted    -0.2106140E-05 ( -61.13%)
   displ. norm   :     0.0863309 α      lambda       -0.4351743E-05
   maximum displ.:     0.0587598 α      in ANC's #1, #2, #3, ...

........................................................................
.............................. CYCLE   47 ..............................
........................................................................

 iter      E             dE          RMSdq      gap      omega  full diag
   1    -32.0771160 -0.320771E+02  0.328E-02    3.64       0.0  T
   2    -32.0771161 -0.614783E-07  0.192E-02    3.64       1.0  T
   3    -32.0771160  0.517315E-07  0.204E-03    3.64       9.6  T
   4    -32.0771161 -0.684178E-07  0.654E-04    3.64      30.0  T
   5    -32.0771161 -0.493694E-08  0.223E-04    3.64      87.8  T
   6    -32.0771161 -0.452140E-09  0.942E-05    3.64     208.2  T
   7    -32.0771161 -0.271001E-10  0.261E-05    3.64     750.0  T
   8    -32.0771161 -0.365930E-11  0.110E-05    3.64    1782.6  T
   9    -32.0771161 -0.255085E-11  0.289E-06    3.64    6786.4  T
  10    -32.0771161 -0.639488E-13  0.104E-06    3.64   18835.7  T
     SCC iter.                  ...        0 min,  0.076 sec
     gradient                   ...        0 min,  0.002 sec
 * total energy  :   -31.5559024 Eh     change       -0.5013486E-05 Eh
   gradient norm :     0.0002770 Eh/α   predicted    -0.2187247E-05 ( -56.37%)
   displ. norm   :     0.0695512 α      lambda       -0.2837870E-05
   maximum displ.:     0.0491142 α      in ANC's #1, #2, #3, ...

........................................................................
.............................. CYCLE   48 ..............................
........................................................................

 iter      E             dE          RMSdq      gap      omega  full diag
   1    -32.0771837 -0.320772E+02  0.267E-02    3.64       0.0  T
   2    -32.0771837 -0.509549E-07  0.156E-02    3.64       1.3  T
   3    -32.0771837  0.416978E-07  0.165E-03    3.64      11.9  T
[...]

           ------------------------------------------------- 
          |                Numerical Hessian                |
           ------------------------------------------------- 
step length          :   0.00500
SCC accuracy         :   0.30000
Hessian scale factor :   1.00000
frozen atoms in %    :   0.00000    0
RMS gradient         :   0.00004
estimated CPU  time      1.12 min
estimated wall time      0.14 min

writing file <hessian>.

 projected vibrational frequencies (cm⁻¹)
eigval :       -0.00    -0.00    -0.00    -0.00     0.00     0.00
eigval :       27.94    69.65    80.87   127.27   129.11   199.27
eigval :      204.09   227.67   261.25   277.01   284.01   356.52
eigval :      363.06   407.23   472.72   585.97   638.48   657.15
eigval :      683.14   704.81   729.27   747.05   791.38   871.25
eigval :      894.59   925.15   931.21   968.66   974.29   998.51
eigval :     1012.22  1021.86  1065.58  1072.81  1085.78  1115.61
eigval :     1123.21  1181.85  1203.19  1225.69  1227.97  1250.83
eigval :     1266.83  1282.15  1316.98  1408.46  1410.67  1421.71
eigval :     1450.91  1454.66  1461.96  1497.35  1500.98  1504.74
eigval :     1508.67  1577.56  1589.08  2939.07  2942.43  2949.68
eigval :     2960.55  3011.47  3013.26  3023.65  3024.82  3034.14
eigval :     3038.86  3057.98  3068.34  3074.66  3087.03  3094.10
           -------------------------------------------------
          |                Property Printout                |
           -------------------------------------------------

    * Orbital Energies and Occupations

         #    Occupation            Energy/Eh            Energy/eV
      -------------------------------------------------------------
         1        2.0000           -0.6587425             -17.9253
       ...           ...                  ...                  ...
        18        2.0000           -0.4770760             -12.9819
        19        2.0000           -0.4740396             -12.8993
        20        2.0000           -0.4689800             -12.7616
        21        2.0000           -0.4616139             -12.5612
        22        2.0000           -0.4527200             -12.3191
        23        2.0000           -0.4450814             -12.1113
        24        2.0000           -0.4393460             -11.9552
        25        2.0000           -0.4246371             -11.5550
        26        2.0000           -0.4144563             -11.2779
        27        2.0000           -0.4077409             -11.0952
        28        2.0000           -0.4028383             -10.9618
        29        2.0000           -0.4006451             -10.9021
        30        2.0000           -0.3635988              -9.8940 (HOMO)
        31                         -0.2298911              -6.2557 (LUMO)
        32                         -0.2215514              -6.0287
        33                         -0.1543226              -4.1993
        34                         -0.1499854              -4.0813
        35                         -0.0933305              -2.5397
        36                          0.0100814               0.2743
        37                          0.0445318               1.2118
        38                          0.1067566               2.9050
        39                          0.1119679               3.0468
        40                          0.1163816               3.1669
        41                          0.1321271               3.5954
       ...                                ...                  ...
        64                          0.7999224              21.7670
      -------------------------------------------------------------
                  HL-Gap            0.1337077 Eh            3.6384 eV
             Fermi-level           -0.2967449 Eh           -8.0748 eV

     #   Z          covCN         q      C6AA      α(0)
     1  15 P        3.021    -0.113   165.382    23.103
     2   6 C        3.748    -0.044    21.427     6.602
     3   1 H        0.926     0.042     2.423     2.434
     4   1 H        0.926     0.041     2.440     2.443
     5   6 C        3.780    -0.094    22.320     6.730
     6   1 H        0.925     0.037     2.483     2.464
     7   1 H        0.925     0.038     2.479     2.462
     8   1 H        0.925     0.032     2.560     2.502
     9   6 C        2.915     0.010    27.791     8.645
    10   6 C        2.960    -0.033    28.832     8.807
    11   6 C        3.022    -0.030    28.725     8.791
    12   6 C        2.919    -0.031    28.768     8.796
    13   6 C        2.918    -0.030    28.753     8.793
    14   6 C        2.920    -0.031    28.776     8.797
    15   1 H        0.926     0.033     2.549     2.497
    16   1 H        0.925     0.034     2.531     2.488
    17   1 H        0.926     0.028     2.618     2.530
    18   1 H        0.926     0.029     2.603     2.523
    19   1 H        0.926     0.028     2.611     2.527
    20   6 C        3.748    -0.045    21.449     6.606
    21   1 H        0.926     0.041     2.441     2.443
    22   1 H        0.925     0.047     2.361     2.403
    23   6 C        3.819    -0.097    22.332     6.725
    24   1 H        0.925     0.041     2.431     2.438
    25   1 H        0.925     0.037     2.489     2.467
    26   1 H        0.925     0.032     2.556     2.500

 Mol. C6AA /au·bohr⁶  :       7600.991883
 Mol. C8AA /au·bohr⁸  :     202605.428218
 Mol. α(0) /au        :        139.515923


Wiberg/Mayer (AO) data.
largest (>0.10) Wiberg bond orders for each atom

 ---------------------------------------------------------------------------
     #   Z sym  total        # sym  WBO       # sym  WBO       # sym  WBO
 ---------------------------------------------------------------------------
     1  15 P    3.377 --    20 C    1.028     9 C    1.019     2 C    1.014
     2   6 C    3.994 --     1 P    1.014     5 C    1.012     4 H    0.956
                             3 H    0.954
     3   1 H    0.998 --     2 C    0.954
     4   1 H    0.998 --     2 C    0.956
     5   6 C    3.997 --     2 C    1.012     7 H    0.984     8 H    0.983
                             6 H    0.983
     6   1 H    0.999 --     5 C    0.983
     7   1 H    0.999 --     5 C    0.984
     8   1 H    0.999 --     5 C    0.983
     9   6 C    3.982 --    10 C    1.402    11 C    1.390     1 P    1.019
                            14 C    0.106
    10   6 C    3.993 --    12 C    1.440     9 C    1.402    15 H    0.963
                            13 C    0.107
    11   6 C    3.992 --    13 C    1.457     9 C    1.390    16 H    0.962
                            12 C    0.110
    12   6 C    3.993 --    14 C    1.442    10 C    1.440    17 H    0.970
                            11 C    0.110
    13   6 C    3.992 --    11 C    1.457    14 C    1.428    18 H    0.970
                            10 C    0.107
    14   6 C    3.992 --    12 C    1.442    13 C    1.428    19 H    0.971
                             9 C    0.106
    15   1 H    0.999 --    10 C    0.963
    16   1 H    0.999 --    11 C    0.962
    17   1 H    0.999 --    12 C    0.970
    18   1 H    0.999 --    13 C    0.970
    19   1 H    0.998 --    14 C    0.971
    20   6 C    3.995 --     1 P    1.028    23 C    1.015    21 H    0.956
                            22 H    0.951
    21   1 H    0.998 --    20 C    0.956
    22   1 H    0.998 --    20 C    0.951
    23   6 C    3.996 --    20 C    1.015    26 H    0.985    24 H    0.984
                            25 H    0.984
    24   1 H    0.998 --    23 C    0.984
    25   1 H    0.999 --    23 C    0.984
    26   1 H    0.999 --    23 C    0.985
 ---------------------------------------------------------------------------

Topologies differ in total number of bonds
Writing topology from bond orders to xtbtopo.mol

molecular dipole:
                 x           y           z       tot (Debye)
 q only:       -0.008      -0.347      -0.033
   full:       -0.245      -0.615       0.046       1.686
molecular quadrupole (traceless):
                xx          xy          yy          xz          yz          zz
 q only:       -0.555      -2.462      -0.238       0.319       2.001       0.793
  q+dip:       -1.074      -5.645      -1.335       2.072       2.155       2.410
   full:       -1.643      -5.008      -0.043       2.573       3.684       1.685

           -------------------------------------------------
          |                Geometry Summary                 |
           -------------------------------------------------

      molecular mass/u    :      166.2002322
   center of mass at/Å    :        0.4653744      -0.4569538      -2.2899752
  moments of inertia/u·Å² :        0.2861804E+03   0.8258003E+03   0.9283152E+03
rotational constants/cm⁻¹ :        0.5890561E-01   0.2041369E-01   0.1815938E-01

 * 24 selected distances

     #   Z          #   Z                                           value/Å
     2   6 C        3   1 H                                       1.0935000
     2   6 C        4   1 H                                       1.0934487
     2   6 C        5   6 C                                       1.5222359
     5   6 C        6   1 H                                       1.0888101
     5   6 C        7   1 H                                       1.0872370
     5   6 C        8   1 H                                       1.0891414
     9   6 C       10   6 C                                       1.3897130
     9   6 C       11   6 C                                       1.3938363
    10   6 C       12   6 C                                       1.3845952
    11   6 C       13   6 C                                       1.3809380
    12   6 C       14   6 C                                       1.3835636
    13   6 C       14   6 C                                       1.3856201
    10   6 C       15   1 H                                       1.0792835 (min)
    11   6 C       16   1 H                                       1.0817232
    12   6 C       17   1 H                                       1.0808663
    13   6 C       18   1 H                                       1.0806275
    14   6 C       19   1 H                                       1.0801541
     1  15 P       20   6 C                                       1.8643776 (max)
    20   6 C       21   1 H                                       1.0940486
    20   6 C       22   1 H                                       1.0924166
    20   6 C       23   6 C                                       1.5234550
    23   6 C       24   1 H                                       1.0884899
    23   6 C       25   1 H                                       1.0877911
    23   6 C       26   1 H                                       1.0890216

 * 3 distinct bonds (by element types)

   Z      Z             #   av. dist./Å        max./Å        min./Å
   1 H    6 C          15     1.0871040     1.0940486     1.0792835
   6 C    6 C           8     1.4204946     1.5234550     1.3809380
   6 C   15 P           1     1.8643776     1.8643776     1.8643776

           -------------------------------------------------
          |               Frequency Printout                |
           -------------------------------------------------
 projected vibrational frequencies (cm⁻¹)
eigval :       -0.00    -0.00    -0.00    -0.00     0.00     0.00
eigval :       27.94    69.65    80.87   127.27   129.11   199.27
eigval :      204.09   227.67   261.25   277.01   284.01   356.52
eigval :      363.06   407.23   472.72   585.97   638.48   657.15
eigval :      683.14   704.81   729.27   747.05   791.38   871.25
eigval :      894.59   925.15   931.21   968.66   974.29   998.51
eigval :     1012.22  1021.86  1065.58  1072.81  1085.78  1115.61
eigval :     1123.21  1181.85  1203.19  1225.69  1227.97  1250.83
eigval :     1266.83  1282.15  1316.98  1408.46  1410.67  1421.71
eigval :     1450.91  1454.66  1461.96  1497.35  1500.98  1504.74
eigval :     1508.67  1577.56  1589.08  2939.07  2942.43  2949.68
eigval :     2960.55  3011.47  3013.26  3023.65  3024.82  3034.14
eigval :     3038.86  3057.98  3068.34  3074.66  3087.03  3094.10
 reduced masses (amu)
   1: 12.70   2: 10.81   3: 13.39   4: 12.59   5: 15.46   6: 12.72   7:  9.94   8:  9.19
   9:  9.60  10:  6.26  11: 10.89  12:  7.45  13:  3.26  14:  9.51  15:  6.47  16:  9.88
  17: 11.21  18: 13.75  19:  9.09  20: 19.02  21: 13.15  22: 11.18  23: 13.87  24: 10.50
  25: 12.57  26: 15.62  27:  4.48  28:  5.44  29:  4.04  30:  3.33  31:  3.58  32:  4.15
  33:  2.98  34: 10.14  35:  3.64  36:  3.15  37:  3.71  38:  3.91  39:  9.51  40:  9.32
  41:  8.36  42:  8.48  43:  4.43  44:  1.30  45:  1.99  46:  3.62  47:  3.30  48:  4.18
  49:  4.15  50:  3.37  51: 11.92  52:  2.92  53:  2.95  54:  8.59  55:  4.48  56:  2.41
  57:  5.28  58:  1.55  59:  1.54  60:  1.54  61:  1.56  62: 11.43  63: 11.44  64:  1.97
  65:  1.97  66:  1.50  67:  1.49  68:  1.88  69:  1.87  70:  1.72  71:  1.87  72:  1.41
  73:  1.55  74:  1.79  75:  1.77  76:  1.83  77:  1.88  78:  1.86
 IR intensities (km·mol⁻¹)
   1:  0.00   2:  0.10   3:  0.02   4:  0.10   5:  0.05   6:  0.13   7:  0.10   8:  0.12
   9:  0.11  10:  0.88  11:  0.12  12:  0.08  13:  0.19  14:  0.15  15:  0.18  16:  0.27
  17:  0.47  18:  0.35  19:  0.05  20:  1.90  21:  4.64  22:  0.06  23: 10.52  24:  3.01
  25:  0.17  26: 25.63  27: 34.59  28: 18.87  29: 20.00  30:  0.23  31:  0.01  32:  0.04
  33:  0.00  34:  2.01  35:  1.52  36:  2.28  37:  2.04  38:  7.77  39:  9.61  40:  7.06
  41:  0.06  42:  1.27  43:  0.09  44:  0.02  45:  0.80  46:  2.34  47:  3.91  48:  3.07
  49:  5.14  50:  0.28  51:  0.36  52:  1.60  53:  2.46  54:  0.73  55:  0.84  56:  1.20
  57:  0.19  58:  3.80  59:  0.76  60:  1.07  61:  1.33  62:  0.52  63:  5.20  64: 21.57
  65: 21.02  66:  6.81  67: 21.95  68: 49.11  69: 51.15  70: 24.45  71: 29.44  72: 24.66
  73: 21.35  74: 14.89  75:  5.69  76: 51.61  77: 77.96  78: 26.74
 Raman intensities (Ä⁴*amu⁻¹)
   1:  0.00   2:  0.00   3:  0.00   4:  0.00   5:  0.00   6:  0.00   7:  0.00   8:  0.00
   9:  0.00  10:  0.00  11:  0.00  12:  0.00  13:  0.00  14:  0.00  15:  0.00  16:  0.00
  17:  0.00  18:  0.00  19:  0.00  20:  0.00  21:  0.00  22:  0.00  23:  0.00  24:  0.00
  25:  0.00  26:  0.00  27:  0.00  28:  0.00  29:  0.00  30:  0.00  31:  0.00  32:  0.00
  33:  0.00  34:  0.00  35:  0.00  36:  0.00  37:  0.00  38:  0.00  39:  0.00  40:  0.00
  41:  0.00  42:  0.00  43:  0.00  44:  0.00  45:  0.00  46:  0.00  47:  0.00  48:  0.00
  49:  0.00  50:  0.00  51:  0.00  52:  0.00  53:  0.00  54:  0.00  55:  0.00  56:  0.00
  57:  0.00  58:  0.00  59:  0.00  60:  0.00  61:  0.00  62:  0.00  63:  0.00  64:  0.00
  65:  0.00  66:  0.00  67:  0.00  68:  0.00  69:  0.00  70:  0.00  71:  0.00  72:  0.00
  73:  0.00  74:  0.00  75:  0.00  76:  0.00  77:  0.00  78:  0.00
 output can be read by thermo (or use thermo option).
 writing <g98.out> molden fake output.
 recommended (thermochemical) frequency scaling factor: 1.0
           -------------------------------------------------
          |             Thermodynamic Functions             |
           -------------------------------------------------

Refinement of some symmetry elements was terminated before convergence was reached.
Some symmetry elements may remain unidentified.
Molecule has no symmetry elements
It seems to be the C1 point group
c1  symmetry found (for desy threshold:  0.10E+00) used in thermo

          ...................................................
          :                      SETUP                      :
          :.................................................:
          :  # frequencies                          72      :
          :  # imaginary freq.                       0      :
          :  linear?                             false      :
          :  only rotor calc.                    false      :
          :  symmetry                               c1      :
          :  rotational number                       1      :
          :  scaling factor                  1.0000000      :
          :  rotor cutoff                   50.0000000 cm⁻¹ :
          :  imag. cutoff                  -20.0000000 cm⁻¹ :
          :.................................................:

    mode    ω/cm⁻¹     T·S(HO)/kcal·mol⁻¹    T·S(FR)/kcal·mol⁻¹   T·S(vib)
   ------------------------------------------------------------------------
       1     27.94    -1.78013 (  8.88%)    -1.22869 ( 91.12%)    -1.27768
       2     69.65    -1.24124 ( 79.02%)    -0.95824 ( 20.98%)    -1.18186
       3     80.87    -1.15377 ( 87.25%)    -0.91404 ( 12.75%)    -1.12320
       4    127.27    -0.89052 ( 97.67%)    -0.77971 (  2.33%)    -0.88794
       5    129.11    -0.88228 ( 97.80%)    -0.77546 (  2.20%)    -0.87993
       6    199.27    -0.63800 ( 99.61%)    -0.64692 (  0.39%)    -0.63803
       7    204.09    -0.62488 ( 99.64%)    -0.63983 (  0.36%)    -0.62494
       8    227.67    -0.56567 ( 99.77%)    -0.60746 (  0.23%)    -0.56577
       9    261.25    -0.49297 ( 99.87%)    -0.56670 (  0.13%)    -0.49307
      10    277.01    -0.46274 ( 99.89%)    -0.54934 (  0.11%)    -0.46283
      11    284.01    -0.45003 ( 99.90%)    -0.54196 (  0.10%)    -0.45012
   ------------------------------------------------------------------------

   temp. (K)  partition function   enthalpy   heat capacity  entropy
                                   cal/mol     cal/K/mol   cal/K/mol   J/K/mol
 298.15  VIB  0.119E+05             6094.616     39.516     37.089
         ROT  0.113E+07              888.752      2.981     30.681
         INT  0.135E+11             6983.368     42.497     67.771
         TR   0.207E+28             1481.254      4.968     41.214
         TOT                        8464.6221    47.4649   108.9841   455.9895

       T/K    H(0)-H(T)+PV         H(T)/Eh          T*S/Eh         G(T)/Eh
   ------------------------------------------------------------------------
    298.15    0.134892E-01    0.232530E+00    0.517819E-01    0.180749E+00
   ------------------------------------------------------------------------

         :::::::::::::::::::::::::::::::::::::::::::::::::::::
         ::                  THERMODYNAMIC                  ::
         :::::::::::::::::::::::::::::::::::::::::::::::::::::
         :: total free energy         -31.375175932692 Eh   ::
         ::.................................................::
         :: total energy              -31.555924438571 Eh   ::
         :: zero point energy           0.219041139658 Eh   ::
         :: G(RRHO) w/o ZPVE           -0.038292633779 Eh   ::
         :: G(RRHO) contrib.            0.180748505879 Eh   ::
         :::::::::::::::::::::::::::::::::::::::::::::::::::::

optimized geometry written to: xtbopt.xyz


           -------------------------------------------------
          | TOTAL ENERGY              -31.555924438571 Eh   |
          | TOTAL ENTHALPY            -31.323394064970 Eh   |
          | TOTAL FREE ENERGY         -31.375175932692 Eh   |
          | GRADIENT NORM               0.000040946457 Eh/α |
          | HOMO-LUMO GAP               3.638372264602 eV   |
           -------------------------------------------------

------------------------------------------------------------------------
 * finished run on 2025/07/14 at 11:38:33.489     
------------------------------------------------------------------------
 total:
 * wall-time:     0 d,  0 h,  0 min,  8.988 sec
 *  cpu-time:     0 d,  0 h,  1 min, 32.977 sec
 * ratio c/w:    10.344 speedup
 SCF:
 * wall-time:     0 d,  0 h,  0 min,  0.088 sec
 *  cpu-time:     0 d,  0 h,  0 min,  1.033 sec
 * ratio c/w:    11.720 speedup
 ANC optimizer:
 * wall-time:     0 d,  0 h,  0 min,  5.515 sec
 *  cpu-time:     0 d,  0 h,  1 min,  5.144 sec
 * ratio c/w:    11.811 speedup
 analytical hessian:
 * wall-time:     0 d,  0 h,  0 min,  3.375 sec
 *  cpu-time:     0 d,  0 h,  0 min, 26.699 sec
 * ratio c/w:     7.911 speedup

