      -----------------------------------------------------------      
     |                   =====================                   |     
     |                           x T B                           |     
     |                   =====================                   |     
     |                         S. Grimme                         |     
     |          Mulliken Center for Theoretical Chemistry        |     
     |                    University of Bonn                     |     
      -----------------------------------------------------------      

   * xtb version 6.7.0 (08769fc) compiled by 'albert@albert-system' on 2024-03-04

   xtb is free software: you can redistribute it and/or modify it under
   the terms of the GNU Lesser General Public License as published by
   the Free Software Foundation, either version 3 of the License, or
   (at your option) any later version.
   
   xtb is distributed in the hope that it will be useful,
   but WITHOUT ANY WARRANTY; without even the implied warranty of
   MERCHANTABILITY or FITNESS FOR A PARTICULAR PURPOSE.  See the
   GNU Lesser General Public License for more details.
   
   Cite this work as:
   * C. Bannwarth, E. Caldeweyher, S. Ehlert, A. Hansen, P. Pracht,
     J. Seibert, S. Spicher, S. Grimme, WIREs Comput. Mol. Sci., 2020, 11,
     e01493. DOI: 10.1002/wcms.1493
   
   for GFN2-xTB:
   * C. Bannwarth, S. Ehlert and S. Grimme., J. Chem. Theory Comput., 2019,
     15, 1652-1671. DOI: 10.1021/acs.jctc.8b01176
   for GFN1-xTB:
   * S. Grimme, C. Bannwarth, P. Shushkov, J. Chem. Theory Comput., 2017,
     13, 1989-2009. DOI: 10.1021/acs.jctc.7b00118
   for GFN0-xTB:
   * P. Pracht, E. Caldeweyher, S. Ehlert, S. Grimme, ChemRxiv, 2019, preprint.
     DOI: 10.26434/chemrxiv.8326202.v1
   for GFN-FF:
   * S. Spicher and S. Grimme, Angew. Chem. Int. Ed., 2020, 59, 15665-15673.
     DOI: 10.1002/anie.202004239
   
   for ALPB and GBSA implicit solvation:
   * S. Ehlert, M. Stahn, S. Spicher, S. Grimme, J. Chem. Theory Comput.,
     2021, 17, 4250-4261. DOI: 10.1021/acs.jctc.1c00471
   
   for ddCOSMO and CPCM-X implicit solvation:
   * M. Stahn, S. Ehlert, S. Grimme, J. Phys. Chem. A,
     2023, XX, XXXX-XXXX. DOI: 10.1021/acs.jpca.3c04382
   
   for DFT-D4:
   * E. Caldeweyher, C. Bannwarth and S. Grimme, J. Chem. Phys., 2017,
     147, 034112. DOI: 10.1063/1.4993215
   * E. Caldeweyher, S. Ehlert, A. Hansen, H. Neugebauer, S. Spicher,
     C. Bannwarth and S. Grimme, J. Chem. Phys., 2019, 150, 154122.
     DOI: 10.1063/1.5090222
   * E. Caldeweyher, J.-M. Mewes, S. Ehlert and S. Grimme, Phys. Chem. Chem. Phys.
     2020, 22, 8499-8512. DOI: 10.1039/D0CP00502A
   
   for sTDA-xTB:
   * S. Grimme and C. Bannwarth, J. Chem. Phys., 2016, 145, 054103.
     DOI: 10.1063/1.4959605
   
   in the mass-spec context:
   * V. Asgeirsson, C. Bauer and S. Grimme, Chem. Sci., 2017, 8, 4879.
     DOI: 10.1039/c7sc00601b
   * J. Koopman and S. Grimme, ACS Omega 2019, 4, 12, 15120-15133.
     DOI: 10.1021/acsomega.9b02011
   
   for metadynamics refer to:
   * S. Grimme, J. Chem. Theory Comput., 2019, 155, 2847-2862
     DOI: 10.1021/acs.jctc.9b00143
   
   for SPH calculations refer to:
   * S. Spicher and S. Grimme, J. Chem. Theory Comput., 2021, 17, 1701-1714
     DOI: 10.1021/acs.jctc.0c01306
   
   for ONIOM refer to:
   * C. Plett, A. Katbashev, S. Ehlert, S. Grimme, M. Bursch,
     Phys. Chem. Chem. Phys., 2023, 25, 17860-17868. DOI: 10.1039/D3CP02178E
   
   for DIPRO refer to:
   * J. Kohn, N. Gildemeister, S. Grimme, D. Fazzi, A. Hansen,
     J. Chem. Phys., 2023, just accepted.
   
   for PTB refer to:
   * S. Grimme, M. Mueller, A. Hansen, J. Chem. Phys., 2023, 158, 124111.
     DOI: 10.1063/5.0137838
   
   with help from (in alphabetical order)
   P. Atkinson, C. Bannwarth, F. Bohle, G. Brandenburg, E. Caldeweyher
   M. Checinski, S. Dohm, S. Ehlert, S. Ehrlich, I. Gerasimov, C. Hölzer
   A. Katbashev, J. Kohn, J. Koopman, C. Lavigne, S. Lehtola, F. März, M. Müller,
   F. Musil, H. Neugebauer, J. Pisarek, C. Plett, P. Pracht, F. Pultar,
   J. Seibert, P. Shushkov, S. Spicher, M. Stahn, M. Steiner, T. Strunk,
   J. Stückrath, T. Rose, and J. Unsleber
   
 * started run on 2025/07/14 at 11:35:30.301     
   ID    Z sym.   atoms
    1   15 P      1
    2    6 C      2, 5, 9-14, 20, 23
    3    1 H      3, 4, 6-8, 15-19, 21, 22, 24-26

           -------------------------------------------------
          |                Calculation Setup                |
           -------------------------------------------------

          program call               : /home/minenky/programs/xtb/xtb-dist/bin/xtb m1_00_PEt2Ph-PBE0-D3-TZ-uniMM_58.xyz --charge 0 --T --ohess extreme --cycles 5000 --acc 0.01 --iterations 5000
          coordinate file            : m1_00_PEt2Ph-PBE0-D3-TZ-uniMM_58.xyz
          omp threads                :                    12

########################################################################
[WARNING] Please study the warnings concerning your input carefully
-1- prog_main_parseArguments: Unknown option '--T' provided
########################################################################

           -------------------------------------------------
          |                 G F N 2 - x T B                 |
           -------------------------------------------------

        Reference                      10.1021/acs.jctc.8b01176
      * Hamiltonian:
        H0-scaling (s, p, d)           1.850000    2.230000    2.230000
        zeta-weighting                 0.500000
      * Dispersion:
        s8                             2.700000
        a1                             0.520000
        a2                             5.000000
        s9                             5.000000
      * Repulsion:
        kExp                           1.500000    1.000000
        rExp                           1.000000
      * Coulomb:
        alpha                          2.000000
        third order                    shell-resolved
        anisotropic                    true
        a3                             3.000000
        a5                             4.000000
        cn-shift                       1.200000
        cn-exp                         4.000000
        max-rad                        5.000000


          ...................................................
          :                      SETUP                      :
          :.................................................:
          :  # basis functions                  65          :
          :  # atomic orbitals                  64          :
          :  # shells                           38          :
          :  # electrons                        60          :
          :  max. iterations                  5000          :
          :  Hamiltonian                  GFN2-xTB          :
          :  restarted?                      false          :
          :  GBSA solvation                  false          :
          :  PC potential                    false          :
          :  electronic temp.          300.0000000     K    :
          :  accuracy                    0.0100000          :
          :  -> integral cutoff          0.4500000E+02      :
          :  -> integral neglect         0.1000000E-09      :
          :  -> SCF convergence          0.1000000E-07 Eh   :
          :  -> wf. convergence          0.1000000E-05 e    :
          :  Broyden damping             0.4000000          :
          :  net charge                          0          :
          :  unpaired electrons                  0          :
          ...................................................

 iter      E             dE          RMSdq      gap      omega  full diag
   1    -32.0052266 -0.320052E+02  0.346E+00    3.98       0.0  T
   2    -32.0486227 -0.433961E-01  0.207E+00    3.46       1.0  T
   3    -32.0487518 -0.129073E-03  0.858E-01    3.17       1.0  T
   4    -32.0492613 -0.509443E-03  0.294E-01    3.19       1.0  T
   5    -32.0507519 -0.149066E-02  0.112E-01    3.23       1.0  T
   6    -32.0509450 -0.193098E-03  0.402E-02    3.22       1.0  T
   7    -32.0509590 -0.139710E-04  0.165E-02    3.23       1.2  T
   8    -32.0509596 -0.581264E-06  0.696E-03    3.23       2.8  T
   9    -32.0509603 -0.698696E-06  0.153E-03    3.23      12.8  T
  10    -32.0509603 -0.341891E-07  0.607E-04    3.23      32.3  T
  11    -32.0509603 -0.133829E-08  0.281E-04    3.23      69.8  T
  12    -32.0509603 -0.616154E-09  0.536E-05    3.23     365.6  T
  13    -32.0509603 -0.382983E-11  0.189E-05    3.23    1039.8  T
  14    -32.0509603 -0.405009E-12  0.102E-05    3.23    1918.9  T
  15    -32.0509603 -0.150635E-11  0.260E-06    3.23    7545.2  T
  16    -32.0509603 -0.355271E-13  0.123E-06    3.23   15983.7  T

   *** convergence criteria satisfied after 16 iterations ***

         #    Occupation            Energy/Eh            Energy/eV
      -------------------------------------------------------------
         1        2.0000           -0.6604780             -17.9725
       ...           ...                  ...                  ...
        24        2.0000           -0.4359666             -11.8633
        25        2.0000           -0.4248133             -11.5598
        26        2.0000           -0.4189928             -11.4014
        27        2.0000           -0.4087191             -11.1218
        28        2.0000           -0.4012308             -10.9180
        29        2.0000           -0.3968688             -10.7993
        30        2.0000           -0.3534739              -9.6185 (HOMO)
        31                         -0.2348946              -6.3918 (LUMO)
        32                         -0.2230861              -6.0705
        33                         -0.1435759              -3.9069
        34                         -0.1372528              -3.7348
        35                         -0.0909670              -2.4753
       ...                                ...                  ...
        64                          0.7957639              21.6538
      -------------------------------------------------------------
                  HL-Gap            0.1185793 Eh            3.2267 eV
             Fermi-level           -0.2941843 Eh           -8.0052 eV

 SCC (total)                   0 d,  0 h,  0 min,  0.086 sec
 SCC setup                      ...        0 min,  0.000 sec (  0.148%)
 Dispersion                     ...        0 min,  0.000 sec (  0.144%)
 classical contributions        ...        0 min,  0.000 sec (  0.012%)
 integral evaluation            ...        0 min,  0.002 sec (  2.441%)
 iterations                     ...        0 min,  0.082 sec ( 95.116%)
 molecular gradient             ...        0 min,  0.002 sec (  2.029%)
 printout                       ...        0 min,  0.000 sec (  0.089%)

         :::::::::::::::::::::::::::::::::::::::::::::::::::::
         ::                     SUMMARY                     ::
         :::::::::::::::::::::::::::::::::::::::::::::::::::::
         :: total energy             -31.535809412783 Eh    ::
         :: gradient norm              0.057443098063 Eh/a0 ::
         :: HOMO-LUMO gap              3.226706503737 eV    ::
         ::.................................................::
         :: SCC energy               -32.050688304380 Eh    ::
         :: -> isotropic ES            0.004297049630 Eh    ::
         :: -> anisotropic ES          0.006164191875 Eh    ::
         :: -> anisotropic XC          0.022598464242 Eh    ::
         :: -> dispersion             -0.024878636000 Eh    ::
         :: repulsion energy           0.514878891597 Eh    ::
         :: add. restraining           0.000000000000 Eh    ::
         :: total charge               0.000000000000 e     ::
         :::::::::::::::::::::::::::::::::::::::::::::::::::::

      ----------------------------------------------------------- 
     |                   =====================                   |
     |                        A N C O P T                        |
     |                   =====================                   |
     |               Approximate Normal Coordinate               |
     |                Rational Function Optimizer                |
      ----------------------------------------------------------- 
      ----------------------------------------------------------- 
     |                   =====================                   |
     |                        A N C O P T                        |
     |                   =====================                   |
     |               Approximate Normal Coordinate               |
     |                Rational Function Optimizer                |
      ----------------------------------------------------------- 

          ...................................................
          :                      SETUP                      :
          :.................................................:
          :   optimization level           extreme          :
          :   max. optcycles                  5000          :
          :   ANC micro-cycles                  20          :
          :   degrees of freedom                72          :
          :.................................................:
          :   RF solver                   davidson          :
          :   write xtbopt.log                true          :
          :   linear?                        false          :
          :   energy convergence         0.5000000E-07 Eh   :
          :   grad. convergence          0.5000000E-04 Eh/α :
          :   maxmium RF displ.          1.0000000          :
          :   Hlow (freq-cutoff)         0.1000000E-01      :
          :   Hmax (freq-cutoff)         5.0000000          :
          :   S6 in model hess.         20.0000000          :
          ...................................................

generating ANC from model Hessian ...
Using Lindh-Hessian (1995)
 Shifting diagonal of input Hessian by   1.461184601033108E-002
 Lowest  eigenvalues of input Hessian
    0.010000    0.014428    0.000000    0.000000    0.000000    0.000000
    0.000000    0.000000    0.015371    0.015734    0.016066    0.017567
    0.019370    0.022704    0.023751    0.024036    0.027724    0.029069
 Highest eigenvalues
    1.352295    1.539989    1.567499    1.869132    1.971077    1.991333
 

........................................................................
.............................. CYCLE    1 ..............................
........................................................................

 iter      E             dE          RMSdq      gap      omega  full diag
   1    -32.0509603 -0.320510E+02  0.495E-07    3.23       0.0  T
   2    -32.0509603  0.497380E-13  0.305E-07    3.23   64339.0  T
   3    -32.0509603 -0.284217E-13  0.190E-07    3.23  100000.0  T
     SCC iter.                  ...        0 min,  0.072 sec
     gradient                   ...        0 min,  0.002 sec
 * total energy  :   -31.5358094 Eh     change       -0.7105427E-14 Eh
   gradient norm :     0.0574431 Eh/α   predicted     0.0000000E+00 (-100.00%)
   displ. norm   :     0.6263654 α      lambda       -0.2078639E-01
   maximum displ.:     0.5082440 α      in ANC's #1, #12, #7, ...

........................................................................
.............................. CYCLE    2 ..............................
........................................................................

 iter      E             dE          RMSdq      gap      omega  full diag
   1    -32.0656203 -0.320656E+02  0.499E-01    3.49       0.0  T
   2    -32.0659796 -0.359322E-03  0.234E-01    3.54       1.0  T
   3    -32.0660101 -0.304338E-04  0.866E-02    3.58       1.0  T
   4    -32.0660095  0.570942E-06  0.423E-02    3.58       1.0  T
   5    -32.0660259 -0.164270E-04  0.120E-02    3.58       1.6  T
   6    -32.0660284 -0.251107E-05  0.511E-03    3.58       3.8  T
   7    -32.0660286 -0.137573E-06  0.181E-03    3.58      10.8  T
   8    -32.0660286 -0.115668E-07  0.601E-04    3.58      32.7  T
   9    -32.0660286 -0.335009E-08  0.227E-04    3.58      86.6  T
  10    -32.0660286 -0.353815E-09  0.781E-05    3.58     251.2  T
  11    -32.0660286 -0.142748E-10  0.348E-05    3.58     564.1  T
  12    -32.0660286 -0.659384E-11  0.119E-05    3.58    1648.2  T
  13    -32.0660286 -0.547118E-12  0.503E-06    3.58    3895.9  T
  14    -32.0660286 -0.426326E-13  0.961E-07    3.58   20412.6  T
     SCC iter.                  ...        0 min,  0.076 sec
     gradient                   ...        0 min,  0.002 sec
 * total energy  :   -31.5477422 Eh     change       -0.1193274E-01 Eh
   gradient norm :     0.0199677 Eh/α   predicted    -0.1447080E-01 (  21.27%)
   displ. norm   :     0.4186416 α      lambda       -0.4417529E-02
   maximum displ.:     0.2925902 α      in ANC's #1, #3, #8, ...

........................................................................
.............................. CYCLE    3 ..............................
........................................................................

 iter      E             dE          RMSdq      gap      omega  full diag
   1    -32.0693356 -0.320693E+02  0.169E-01    3.57       0.0  T
   2    -32.0693463 -0.107273E-04  0.972E-02    3.57       1.0  T
   3    -32.0693445  0.179692E-05  0.171E-02    3.57       1.1  T
   4    -32.0693465 -0.198159E-05  0.824E-03    3.57       2.4  T
   5    -32.0693477 -0.120518E-05  0.187E-03    3.57      10.5  T
   6    -32.0693477 -0.156391E-07  0.864E-04    3.57      22.7  T
   7    -32.0693477 -0.100055E-08  0.437E-04    3.57      44.8  T
   8    -32.0693477 -0.259710E-08  0.131E-04    3.57     149.5  T
   9    -32.0693477 -0.108813E-09  0.571E-05    3.57     343.3  T
  10    -32.0693477 -0.146514E-10  0.231E-05    3.57     848.7  T
  11    -32.0693477 -0.873968E-12  0.807E-06    3.57    2431.5  T
  12    -32.0693477 -0.341061E-12  0.341E-06    3.57    5756.5  T
     SCC iter.                  ...        0 min,  0.082 sec
     gradient                   ...        0 min,  0.002 sec
 * total energy  :   -31.5510555 Eh     change       -0.3313358E-02 Eh
   gradient norm :     0.0096967 Eh/α   predicted    -0.2595881E-02 ( -21.65%)
   displ. norm   :     0.4521155 α      lambda       -0.2641393E-02
   maximum displ.:     0.3046956 α      in ANC's #1, #8, #3, ...

........................................................................
.............................. CYCLE    4 ..............................
........................................................................

 iter      E             dE          RMSdq      gap      omega  full diag
   1    -32.0698012 -0.320698E+02  0.177E-01    3.59       0.0  T
   2    -32.0698106 -0.942563E-05  0.101E-01    3.59       1.0  T
   3    -32.0698062  0.445677E-05  0.198E-02    3.59       1.0  T
   4    -32.0698109 -0.474812E-05  0.103E-02    3.59       1.9  T
   5    -32.0698125 -0.159069E-05  0.208E-03    3.59       9.4  T
   6    -32.0698125 -0.531714E-07  0.976E-04    3.59      20.1  T
   7    -32.0698125 -0.429162E-08  0.449E-04    3.59      43.7  T
   8    -32.0698125 -0.768367E-09  0.157E-04    3.59     125.3  T
   9    -32.0698125 -0.378733E-09  0.635E-05    3.59     308.8  T
  10    -32.0698125 -0.257998E-10  0.260E-05    3.59     753.3  T
  11    -32.0698125 -0.125056E-11  0.912E-06    3.59    2150.0  T
  12    -32.0698125 -0.568434E-12  0.280E-06    3.59    6999.3  T
     SCC iter.                  ...        0 min,  0.075 sec
     gradient                   ...        0 min,  0.002 sec
 * total energy  :   -31.5528552 Eh     change       -0.1799672E-02 Eh
   gradient norm :     0.0082646 Eh/α   predicted    -0.1590659E-02 ( -11.61%)
   displ. norm   :     0.3413699 α      lambda       -0.9967210E-03
   maximum displ.:     0.2453572 α      in ANC's #1, #8, #3, ...

........................................................................
.............................. CYCLE    5 ..............................
........................................................................

 iter      E             dE          RMSdq      gap      omega  full diag
   1    -32.0715179 -0.320715E+02  0.117E-01    3.57       0.0  T
   2    -32.0715205 -0.264108E-05  0.687E-02    3.57       1.0  T
   3    -32.0715191  0.140290E-05  0.102E-02    3.56       1.9  T
   4    -32.0715208 -0.170208E-05  0.456E-03    3.56       4.3  T
   5    -32.0715211 -0.302134E-06  0.164E-03    3.56      12.0  T
   6    -32.0715212 -0.999250E-08  0.736E-04    3.56      26.7  T
   7    -32.0715212 -0.412437E-08  0.217E-04    3.56      90.3  T
   8    -32.0715212 -0.158813E-09  0.963E-05    3.56     203.6  T
   9    -32.0715212 -0.116728E-09  0.295E-05    3.56     665.5  T
  10    -32.0715212 -0.557066E-11  0.132E-05    3.56    1490.8  T
  11    -32.0715212 -0.795808E-12  0.567E-06    3.56    3461.8  T
  12    -32.0715212 -0.106581E-12  0.181E-06    3.56   10845.8  T
     SCC iter.                  ...        0 min,  0.076 sec
     gradient                   ...        0 min,  0.002 sec
 * total energy  :   -31.5535460 Eh     change       -0.6908336E-03 Eh
   gradient norm :     0.0063479 Eh/α   predicted    -0.5564475E-03 ( -19.45%)
   displ. norm   :     0.2669347 α      lambda       -0.4667798E-03
   maximum displ.:     0.1738693 α      in ANC's #1, #8, #7, ...

........................................................................
.............................. CYCLE    6 ..............................
........................................................................

 iter      E             dE          RMSdq      gap      omega  full diag
   1    -32.0734442 -0.320734E+02  0.112E-01    3.57       0.0  T
   2    -32.0734460 -0.183188E-05  0.642E-02    3.57       1.0  T
   3    -32.0734452  0.813607E-06  0.948E-03    3.58       2.1  T
   4    -32.0734462 -0.101943E-05  0.364E-03    3.58       5.4  T
   5    -32.0734464 -0.181331E-06  0.104E-03    3.58      18.9  T
   6    -32.0734464 -0.109623E-07  0.552E-04    3.58      35.5  T
   7    -32.0734464 -0.153302E-08  0.158E-04    3.58     124.4  T
   8    -32.0734464 -0.111534E-09  0.716E-05    3.58     273.9  T
   9    -32.0734464 -0.391509E-10  0.281E-05    3.58     697.3  T
  10    -32.0734464 -0.571987E-11  0.134E-05    3.58    1462.7  T
  11    -32.0734464 -0.689226E-12  0.454E-06    3.58    4315.1  T
  12    -32.0734464 -0.170530E-12  0.119E-06    3.58   16490.1  T
     SCC iter.                  ...        0 min,  0.074 sec
     gradient                   ...        0 min,  0.002 sec
 * total energy  :   -31.5538665 Eh     change       -0.3204534E-03 Eh
   gradient norm :     0.0039456 Eh/α   predicted    -0.2500224E-03 ( -21.98%)
   displ. norm   :     0.2235383 α      lambda       -0.2516851E-03
   maximum displ.:     0.1491723 α      in ANC's #1, #7, #8, ...

........................................................................
.............................. CYCLE    7 ..............................
........................................................................

 iter      E             dE          RMSdq      gap      omega  full diag
   1    -32.0747470 -0.320747E+02  0.976E-02    3.56       0.0  T
   2    -32.0747486 -0.160138E-05  0.566E-02    3.56       1.0  T
   3    -32.0747481  0.425988E-06  0.797E-03    3.56       2.5  T
   4    -32.0747487 -0.511208E-06  0.317E-03    3.56       6.2  T
   5    -32.0747488 -0.178627E-06  0.858E-04    3.56      22.9  T
   6    -32.0747488 -0.958609E-08  0.448E-04    3.56      43.8  T
   7    -32.0747488 -0.136801E-08  0.169E-04    3.56     115.8  T
   8    -32.0747488 -0.266603E-09  0.584E-05    3.56     336.0  T
   9    -32.0747488 -0.154188E-10  0.191E-05    3.56    1026.2  T
  10    -32.0747488 -0.248690E-11  0.778E-06    3.56    2519.8  T
  11    -32.0747488 -0.369482E-12  0.321E-06    3.56    6117.9  T
     SCC iter.                  ...        0 min,  0.073 sec
     gradient                   ...        0 min,  0.002 sec
 * total energy  :   -31.5540461 Eh     change       -0.1795985E-03 Eh
   gradient norm :     0.0032769 Eh/α   predicted    -0.1321318E-03 ( -26.43%)
   displ. norm   :     0.2424348 α      lambda       -0.2098715E-03
   maximum displ.:     0.1405681 α      in ANC's #7, #1, #8, ...

........................................................................
.............................. CYCLE    8 ..............................
........................................................................

 iter      E             dE          RMSdq      gap      omega  full diag
   1    -32.0752580 -0.320753E+02  0.113E-01    3.56       0.0  T
   2    -32.0752596 -0.153967E-05  0.650E-02    3.57       1.0  T
   3    -32.0752589  0.667412E-06  0.846E-03    3.57       2.3  T
   4    -32.0752597 -0.744998E-06  0.321E-03    3.57       6.1  T
   5    -32.0752598 -0.198826E-06  0.847E-04    3.57      23.2  T
   6    -32.0752599 -0.135442E-07  0.384E-04    3.57      51.0  T
   7    -32.0752599 -0.663874E-09  0.166E-04    3.57     118.4  T
   8    -32.0752599 -0.313058E-09  0.409E-05    3.57     479.9  T
   9    -32.0752599 -0.953548E-11  0.154E-05    3.57    1273.3  T
  10    -32.0752599 -0.696332E-12  0.573E-06    3.57    3420.9  T
  11    -32.0752599 -0.213163E-12  0.258E-06    3.57    7604.2  T
     SCC iter.                  ...        0 min,  0.074 sec
     gradient                   ...        0 min,  0.002 sec
 * total energy  :   -31.5542037 Eh     change       -0.1576544E-03 Eh
   gradient norm :     0.0041879 Eh/α   predicted    -0.1111046E-03 ( -29.53%)
   displ. norm   :     0.3048705 α      lambda       -0.2231175E-03
   maximum displ.:     0.1668902 α      in ANC's #7, #1, #4, ...

........................................................................
.............................. CYCLE    9 ..............................
........................................................................

 iter      E             dE          RMSdq      gap      omega  full diag
   1    -32.0748911 -0.320749E+02  0.138E-01    3.57       0.0  T
   2    -32.0748932 -0.205691E-05  0.796E-02    3.57       1.0  T
   3    -32.0748929  0.272554E-06  0.815E-03    3.57       2.4  T
   4    -32.0748933 -0.383163E-06  0.336E-03    3.57       5.8  T
   5    -32.0748935 -0.203242E-06  0.956E-04    3.57      20.5  T
   6    -32.0748935 -0.150481E-07  0.432E-04    3.57      45.4  T
   7    -32.0748935 -0.512358E-09  0.156E-04    3.57     125.6  T
   8    -32.0748935 -0.356479E-09  0.405E-05    3.57     484.0  T
   9    -32.0748935 -0.168754E-10  0.139E-05    3.57    1406.9  T
  10    -32.0748935 -0.284217E-12  0.355E-06    3.57    5521.5  T
  11    -32.0748935 -0.497380E-13  0.163E-06    3.57   12011.6  T
     SCC iter.                  ...        0 min,  0.074 sec
     gradient                   ...        0 min,  0.002 sec
 * total energy  :   -31.5543679 Eh     change       -0.1642074E-03 Eh
   gradient norm :     0.0051433 Eh/α   predicted    -0.1219289E-03 ( -25.75%)
   displ. norm   :     0.2885190 α      lambda       -0.1737806E-03
   maximum displ.:     0.1700647 α      in ANC's #4, #7, #1, ...

........................................................................
.............................. CYCLE   10 ..............................
........................................................................

 iter      E             dE          RMSdq      gap      omega  full diag
   1    -32.0742697 -0.320743E+02  0.128E-01    3.58       0.0  T
   2    -32.0742711 -0.145182E-05  0.743E-02    3.58       1.0  T
   3    -32.0742710  0.147617E-06  0.657E-03    3.58       3.0  T
   4    -32.0742712 -0.241896E-06  0.303E-03    3.58       6.5  T
   5    -32.0742714 -0.161269E-06  0.872E-04    3.58      22.5  T
   6    -32.0742714 -0.548388E-08  0.393E-04    3.58      49.9  T
   7    -32.0742714 -0.241812E-09  0.993E-05    3.58     197.5  T
   8    -32.0742714 -0.449489E-10  0.336E-05    3.58     582.8  T
   9    -32.0742714 -0.146017E-10  0.164E-05    3.58    1198.8  T
  10    -32.0742714 -0.252243E-11  0.580E-06    3.58    3378.8  T
  11    -32.0742714 -0.198952E-12  0.196E-06    3.58   10031.4  T
     SCC iter.                  ...        0 min,  0.073 sec
     gradient                   ...        0 min,  0.002 sec
 * total energy  :   -31.5544892 Eh     change       -0.1212814E-03 Eh
   gradient norm :     0.0043787 Eh/α   predicted    -0.9412394E-04 ( -22.39%)
   displ. norm   :     0.2013453 α      lambda       -0.1005933E-03
   maximum displ.:     0.1415439 α      in ANC's #4, #1, #7, ...

........................................................................
.............................. CYCLE   11 ..............................
........................................................................

 iter      E             dE          RMSdq      gap      omega  full diag
   1    -32.0743718 -0.320744E+02  0.866E-02    3.59       0.0  T
   2    -32.0743723 -0.515488E-06  0.504E-02    3.59       1.0  T
   3    -32.0743721  0.271668E-06  0.528E-03    3.59       3.7  T
   4    -32.0743724 -0.351853E-06  0.195E-03    3.59      10.1  T
   5    -32.0743725 -0.576769E-07  0.684E-04    3.59      28.7  T
   6    -32.0743725 -0.306653E-08  0.323E-04    3.59      60.7  T
   7    -32.0743725 -0.198803E-09  0.808E-05    3.59     242.8  T
   8    -32.0743725 -0.117836E-09  0.304E-05    3.59     644.9  T
   9    -32.0743725 -0.125766E-10  0.100E-05    3.59    1957.1  T
  10    -32.0743725 -0.184741E-12  0.461E-06    3.59    4257.4  T
  11    -32.0743725 -0.163425E-12  0.158E-06    3.59   12426.1  T
     SCC iter.                  ...        0 min,  0.073 sec
     gradient                   ...        0 min,  0.002 sec
 * total energy  :   -31.5545613 Eh     change       -0.7209724E-04 Eh
   gradient norm :     0.0026223 Eh/α   predicted    -0.5233878E-04 ( -27.41%)
   displ. norm   :     0.1221638 α      lambda       -0.6874753E-04
   maximum displ.:     0.0929206 α      in ANC's #4, #1, #7, ...

........................................................................
.............................. CYCLE   12 ..............................
........................................................................

 iter      E             dE          RMSdq      gap      omega  full diag
   1    -32.0749691 -0.320750E+02  0.524E-02    3.59       0.0  T
   2    -32.0749693 -0.178118E-06  0.308E-02    3.59       1.0  T
   3    -32.0749690  0.247293E-06  0.445E-03    3.59       4.4  T
   4    -32.0749693 -0.313504E-06  0.916E-04    3.59      21.4  T
   5    -32.0749693 -0.145344E-08  0.516E-04    3.59      38.0  T
   6    -32.0749693 -0.286458E-08  0.194E-04    3.59     101.0  T
   7    -32.0749693 -0.515143E-10  0.570E-05    3.59     344.3  T
   8    -32.0749693 -0.609859E-10  0.214E-05    3.59     914.9  T
   9    -32.0749693 -0.259348E-11  0.819E-06    3.59    2393.2  T
  10    -32.0749693 -0.603961E-12  0.273E-06    3.59    7178.9  T
     SCC iter.                  ...        0 min,  0.073 sec
     gradient                   ...        0 min,  0.002 sec
 * total energy  :   -31.5546171 Eh     change       -0.5574898E-04 Eh
   gradient norm :     0.0022417 Eh/α   predicted    -0.3488897E-04 ( -37.42%)
   displ. norm   :     0.1845651 α      lambda       -0.8988332E-04
   maximum displ.:     0.1309729 α      in ANC's #4, #1, #7, ...

........................................................................
.............................. CYCLE   13 ..............................
........................................................................

 iter      E             dE          RMSdq      gap      omega  full diag
   1    -32.0751037 -0.320751E+02  0.768E-02    3.59       0.0  T
   2    -32.0751039 -0.253244E-06  0.452E-02    3.59       1.0  T
   3    -32.0751037  0.226613E-06  0.510E-03    3.59       3.8  T
   4    -32.0751040 -0.337115E-06  0.134E-03    3.59      14.6  T
   5    -32.0751040  0.287804E-08  0.706E-04    3.59      27.8  T
   6    -32.0751040 -0.595673E-08  0.160E-04    3.59     122.5  T
   7    -32.0751040 -0.842704E-11  0.647E-05    3.59     303.3  T
   8    -32.0751040 -0.819398E-10  0.257E-05    3.59     761.8  T
   9    -32.0751040 -0.272138E-11  0.901E-06    3.59    2176.9  T
  10    -32.0751040 -0.213163E-12  0.272E-06    3.59    7205.2  T
     SCC iter.                  ...        0 min,  0.073 sec
     gradient                   ...        0 min,  0.002 sec
 * total energy  :   -31.5546897 Eh     change       -0.7262593E-04 Eh
   gradient norm :     0.0033882 Eh/α   predicted    -0.4647734E-04 ( -36.00%)
   displ. norm   :     0.2591792 α      lambda       -0.1071147E-03
   maximum displ.:     0.1871093 α      in ANC's #4, #1, #3, ...

........................................................................
.............................. CYCLE   14 ..............................
........................................................................

 iter      E             dE          RMSdq      gap      omega  full diag
   1    -32.0750817 -0.320751E+02  0.105E-01    3.59       0.0  T
   2    -32.0750822 -0.418817E-06  0.618E-02    3.60       1.0  T
   3    -32.0750820  0.165292E-06  0.573E-03    3.60       3.4  T
   4    -32.0750823 -0.336487E-06  0.176E-03    3.60      11.1  T
   5    -32.0750823  0.610711E-08  0.872E-04    3.60      22.5  T
   6    -32.0750823 -0.937396E-08  0.227E-04    3.60      86.4  T
   7    -32.0750823 -0.830909E-10  0.665E-05    3.60     295.1  T
   8    -32.0750823 -0.237605E-10  0.315E-05    3.60     623.5  T
   9    -32.0750823 -0.601830E-11  0.154E-05    3.60    1270.1  T
  10    -32.0750823 -0.909495E-12  0.439E-06    3.60    4470.6  T
  11    -32.0750823 -0.127898E-12  0.132E-06    3.60   14906.8  T
     SCC iter.                  ...        0 min,  0.073 sec
     gradient                   ...        0 min,  0.002 sec
 * total energy  :   -31.5547778 Eh     change       -0.8806644E-04 Eh
   gradient norm :     0.0039474 Eh/α   predicted    -0.5715628E-04 ( -35.10%)
   displ. norm   :     0.3300606 α      lambda       -0.1235003E-03
   maximum displ.:     0.2410781 α      in ANC's #4, #1, #7, ...

........................................................................
.............................. CYCLE   15 ..............................
........................................................................

 iter      E             dE          RMSdq      gap      omega  full diag
   1    -32.0744031 -0.320744E+02  0.131E-01    3.60       0.0  T
   2    -32.0744038 -0.752214E-06  0.768E-02    3.60       1.0  T
   3    -32.0744037  0.153831E-06  0.631E-03    3.60       3.1  T
   4    -32.0744041 -0.405066E-06  0.204E-03    3.60       9.6  T
   5    -32.0744041 -0.475127E-08  0.102E-03    3.60      19.2  T
   6    -32.0744041 -0.114112E-07  0.400E-04    3.60      49.0  T
   7    -32.0744041 -0.289937E-09  0.846E-05    3.60     231.7  T
   8    -32.0744041 -0.428884E-10  0.321E-05    3.60     611.7  T
   9    -32.0744041 -0.795808E-12  0.142E-05    3.60    1380.4  T
  10    -32.0744041 -0.154188E-11  0.452E-06    3.60    4334.1  T
  11    -32.0744041 -0.248690E-12  0.173E-06    3.60   11337.1  T
     SCC iter.                  ...        0 min,  0.074 sec
     gradient                   ...        0 min,  0.002 sec
 * total energy  :   -31.5548803 Eh     change       -0.1025702E-03 Eh
   gradient norm :     0.0037082 Eh/α   predicted    -0.6848130E-04 ( -33.23%)
   displ. norm   :     0.3819131 α      lambda       -0.1427011E-03
   maximum displ.:     0.2901769 α      in ANC's #4, #1, #7, ...

........................................................................
.............................. CYCLE   16 ..............................
........................................................................

 iter      E             dE          RMSdq      gap      omega  full diag
   1    -32.0742501 -0.320743E+02  0.148E-01    3.60       0.0  T
   2    -32.0742513 -0.125337E-05  0.864E-02    3.61       1.0  T
   3    -32.0742512  0.154504E-06  0.704E-03    3.61       2.8  T
   4    -32.0742516 -0.448491E-06  0.253E-03    3.61       7.8  T
   5    -32.0742517 -0.387106E-07  0.116E-03    3.61      17.0  T
   6    -32.0742517 -0.116740E-07  0.488E-04    3.61      40.2  T
   7    -32.0742517 -0.393420E-09  0.897E-05    3.61     218.6  T
   8    -32.0742517 -0.667555E-10  0.312E-05    3.61     627.9  T
   9    -32.0742517 -0.358114E-11  0.162E-05    3.61    1211.8  T
  10    -32.0742517 -0.191847E-11  0.546E-06    3.61    3590.2  T
  11    -32.0742517 -0.355271E-12  0.161E-06    3.61   12201.4  T
     SCC iter.                  ...        0 min,  0.074 sec
     gradient                   ...        0 min,  0.002 sec
 * total energy  :   -31.5549927 Eh     change       -0.1123386E-03 Eh
   gradient norm :     0.0032180 Eh/α   predicted    -0.8175864E-04 ( -27.22%)
   displ. norm   :     0.4339987 α      lambda       -0.1345925E-03
   maximum displ.:     0.3277341 α      in ANC's #4, #1, #7, ...

........................................................................
.............................. CYCLE   17 ..............................
........................................................................

 iter      E             dE          RMSdq      gap      omega  full diag
   1    -32.0729958 -0.320730E+02  0.166E-01    3.61       0.0  T
   2    -32.0729976 -0.181786E-05  0.969E-02    3.61       1.0  T
   3    -32.0729973  0.337028E-06  0.835E-03    3.61       2.3  T
   4    -32.0729980 -0.663240E-06  0.350E-03    3.61       5.6  T
   5    -32.0729981 -0.144868E-06  0.127E-03    3.61      15.4  T
   6    -32.0729981 -0.102176E-07  0.572E-04    3.61      34.3  T
   7    -32.0729981 -0.170687E-09  0.153E-04    3.61     127.9  T
   8    -32.0729981 -0.498929E-09  0.462E-05    3.61     424.5  T
   9    -32.0729981 -0.268869E-10  0.170E-05    3.61    1155.6  T
  10    -32.0729981 -0.127898E-12  0.615E-06    3.61    3188.9  T
  11    -32.0729981 -0.454747E-12  0.193E-06    3.61   10163.1  T
     SCC iter.                  ...        0 min,  0.074 sec
     gradient                   ...        0 min,  0.002 sec
 * total energy  :   -31.5550870 Eh     change       -0.9436740E-04 Eh
   gradient norm :     0.0045564 Eh/α   predicted    -0.7997679E-04 ( -15.25%)
   displ. norm   :     0.2949636 α      lambda       -0.1279616E-03
   maximum displ.:     0.2316673 α      in ANC's #4, #6, #7, ...

........................................................................
.............................. CYCLE   18 ..............................
........................................................................

 iter      E             dE          RMSdq      gap      omega  full diag
   1    -32.0770614 -0.320771E+02  0.103E-01    3.63       0.0  T
   2    -32.0770631 -0.168960E-05  0.598E-02    3.64       1.0  T
   3    -32.0770626  0.534295E-06  0.816E-03    3.64       2.4  T
   4    -32.0770632 -0.672501E-06  0.330E-03    3.64       5.9  T
   5    -32.0770634 -0.152402E-06  0.112E-03    3.64      17.4  T
   6    -32.0770634 -0.818085E-08  0.494E-04    3.64      39.7  T
   7    -32.0770634 -0.957463E-09  0.172E-04    3.64     114.1  T
   8    -32.0770634 -0.253380E-09  0.406E-05    3.64     483.4  T
   9    -32.0770634 -0.281801E-10  0.156E-05    3.64    1261.1  T
  10    -32.0770634 -0.945022E-12  0.802E-06    3.64    2443.8  T
  11    -32.0770634 -0.497380E-12  0.242E-06    3.64    8111.6  T
     SCC iter.                  ...        0 min,  0.074 sec
     gradient                   ...        0 min,  0.002 sec
 * total energy  :   -31.5551459 Eh     change       -0.5887881E-04 Eh
   gradient norm :     0.0041252 Eh/α   predicted    -0.6954788E-04 (  18.12%)
   displ. norm   :     0.4329667 α      lambda       -0.1212687E-03
   maximum displ.:     0.3001349 α      in ANC's #4, #1, #7, ...

........................................................................
.............................. CYCLE   19 ..............................
........................................................................

 iter      E             dE          RMSdq      gap      omega  full diag
   1    -32.0720776 -0.320721E+02  0.171E-01    3.61       0.0  T
   2    -32.0720801 -0.250699E-05  0.997E-02    3.62       1.0  T
   3    -32.0720786  0.147144E-05  0.106E-02    3.62       1.9  T
   4    -32.0720804 -0.177914E-05  0.430E-03    3.62       4.6  T
   5    -32.0720807 -0.329006E-06  0.129E-03    3.62      15.2  T
   6    -32.0720807 -0.114200E-07  0.631E-04    3.62      31.1  T
   7    -32.0720807 -0.912550E-09  0.220E-04    3.62      89.3  T
   8    -32.0720807 -0.553491E-09  0.532E-05    3.62     368.8  T
   9    -32.0720807 -0.441673E-10  0.185E-05    3.62    1060.1  T
  10    -32.0720807 -0.667910E-12  0.853E-06    3.62    2298.6  T
  11    -32.0720807 -0.110134E-11  0.249E-06    3.62    7878.7  T
     SCC iter.                  ...        0 min,  0.074 sec
     gradient                   ...        0 min,  0.002 sec
 * total energy  :   -31.5551801 Eh     change       -0.3423576E-04 Eh
   gradient norm :     0.0071746 Eh/α   predicted    -0.7200247E-04 ( 110.31%)
   displ. norm   :     0.1091150 α      lambda       -0.1033952E-03
   maximum displ.:     0.0861462 α      in ANC's #4, #1, #6, ...

........................................................................
.............................. CYCLE   20 ..............................
........................................................................

 iter      E             dE          RMSdq      gap      omega  full diag
   1    -32.0751986 -0.320752E+02  0.458E-02    3.63       0.0  T
   2    -32.0751991 -0.527158E-06  0.274E-02    3.63       1.0  T
   3    -32.0751989  0.221677E-06  0.468E-03    3.63       4.2  T
   4    -32.0751992 -0.304156E-06  0.103E-03    3.63      19.0  T
   5    -32.0751992 -0.634628E-08  0.508E-04    3.63      38.6  T
   6    -32.0751992 -0.193448E-08  0.212E-04    3.63      92.5  T
   7    -32.0751992 -0.393264E-09  0.958E-05    3.63     204.7  T
   8    -32.0751992 -0.573479E-10  0.266E-05    3.63     736.5  T
   9    -32.0751992 -0.944311E-11  0.866E-06    3.63    2265.8  T
  10    -32.0751992 -0.163425E-12  0.323E-06    3.63    6066.6  T
     SCC iter.                  ...        0 min,  0.074 sec
     gradient                   ...        0 min,  0.002 sec
 * total energy  :   -31.5552385 Eh     change       -0.5833172E-04 Eh
   gradient norm :     0.0031848 Eh/α   predicted    -0.5231322E-04 ( -10.32%)
   displ. norm   :     0.1204498 α      lambda       -0.6501531E-04
   maximum displ.:     0.0634092 α      in ANC's #4, #5, #1, ...
 * RMSD in coord.:     0.8820541 α      energy gain  -0.1942906E-01 Eh

generating ANC from model Hessian ...
Using Lindh-Hessian (1995)
 Shifting diagonal of input Hessian by   9.212453280293355E-003
 Lowest  eigenvalues of input Hessian
    0.000000    0.000000    0.000000    0.000000    0.000000    0.000000
    0.010000    0.010309    0.010592    0.011251    0.012210    0.012507
    0.015204    0.017214    0.018552    0.019316    0.024080    0.024403
 Highest eigenvalues
    1.363338    1.550848    1.577275    1.882468    1.988982    2.005219
 

........................................................................
.............................. CYCLE   21 ..............................
........................................................................

 iter      E             dE          RMSdq      gap      omega  full diag
   1    -32.0763422 -0.320763E+02  0.437E-02    3.64       0.0  T
   2    -32.0763425 -0.335651E-06  0.259E-02    3.64       1.0  T
   3    -32.0763421  0.408585E-06  0.545E-03    3.64       3.6  T
   4    -32.0763426 -0.496612E-06  0.147E-03    3.64      13.3  T
   5    -32.0763426 -0.182191E-07  0.608E-04    3.64      32.3  T
   6    -32.0763426 -0.403276E-08  0.292E-04    3.64      67.1  T
   7    -32.0763426 -0.402707E-09  0.786E-05    3.64     249.4  T
   8    -32.0763426 -0.758789E-10  0.224E-05    3.64     877.2  T
   9    -32.0763426 -0.345324E-11  0.953E-06    3.64    2057.0  T
  10    -32.0763426 -0.333955E-12  0.292E-06    3.64    6709.4  T
     SCC iter.                  ...        0 min,  0.073 sec
     gradient                   ...        0 min,  0.002 sec
 * total energy  :   -31.5552811 Eh     change       -0.4259507E-04 Eh
   gradient norm :     0.0026348 Eh/α   predicted     0.0000000E+00 (-100.00%)
   displ. norm   :     0.0375026 α      lambda       -0.3302962E-04
   maximum displ.:     0.0271908 α      in ANC's #4, #1, #7, ...

........................................................................
.............................. CYCLE   22 ..............................
........................................................................

 iter      E             dE          RMSdq      gap      omega  full diag
   1    -32.0764634 -0.320765E+02  0.195E-02    3.64       0.0  T
   2    -32.0764634 -0.582528E-07  0.116E-02    3.64       1.7  T
   3    -32.0764634  0.682478E-07  0.230E-03    3.64       8.5  T
   4    -32.0764635 -0.847423E-07  0.714E-04    3.64      27.5  T
   5    -32.0764635 -0.199108E-09  0.336E-04    3.64      58.3  T
   6    -32.0764635 -0.239182E-08  0.112E-04    3.64     175.5  T
   7    -32.0764635 -0.100144E-09  0.400E-05    3.64     490.4  T
   8    -32.0764635 -0.405720E-11  0.917E-06    3.64    2139.3  T
   9    -32.0764635 -0.333955E-12  0.403E-06    3.64    4867.9  T
     SCC iter.                  ...        0 min,  0.073 sec
     gradient                   ...        0 min,  0.002 sec
 * total energy  :   -31.5553043 Eh     change       -0.2318959E-04 Eh
   gradient norm :     0.0008128 Eh/α   predicted    -0.1655614E-04 ( -28.61%)
   displ. norm   :     0.0830510 α      lambda       -0.2130824E-04
   maximum displ.:     0.0634450 α      in ANC's #4, #1, #2, ...

........................................................................
.............................. CYCLE   23 ..............................
........................................................................

 iter      E             dE          RMSdq      gap      omega  full diag
   1    -32.0765308 -0.320765E+02  0.265E-02    3.63       0.0  T
   2    -32.0765309 -0.122986E-06  0.160E-02    3.64       1.2  T
   3    -32.0765308  0.144591E-06  0.347E-03    3.64       5.7  T
   4    -32.0765310 -0.178745E-06  0.823E-04    3.64      23.8  T
   5    -32.0765310 -0.526370E-10  0.538E-04    3.64      36.5  T
   6    -32.0765310 -0.277183E-08  0.160E-04    3.64     122.5  T
   7    -32.0765310 -0.189203E-09  0.470E-05    3.64     417.1  T
   8    -32.0765310 -0.166978E-10  0.147E-05    3.64    1338.0  T
   9    -32.0765310 -0.125056E-11  0.627E-06    3.64    3129.2  T
  10    -32.0765310 -0.355271E-13  0.297E-06    3.64    6604.7  T
     SCC iter.                  ...        0 min,  0.073 sec
     gradient                   ...        0 min,  0.002 sec
 * total energy  :   -31.5553239 Eh     change       -0.1964461E-04 Eh
   gradient norm :     0.0015829 Eh/α   predicted    -0.1068709E-04 ( -45.60%)
   displ. norm   :     0.0616703 α      lambda       -0.1146790E-04
   maximum displ.:     0.0419856 α      in ANC's #4, #1, #2, ...

........................................................................
.............................. CYCLE   24 ..............................
........................................................................

 iter      E             dE          RMSdq      gap      omega  full diag
   1    -32.0764729 -0.320765E+02  0.196E-02    3.64       0.0  T
   2    -32.0764729 -0.463746E-07  0.114E-02    3.64       1.7  T
   3    -32.0764729  0.174625E-07  0.155E-03    3.64      12.6  T
   4    -32.0764729 -0.242292E-07  0.585E-04    3.64      33.5  T
   5    -32.0764729 -0.311616E-08  0.200E-04    3.64      98.0  T
   6    -32.0764729 -0.596422E-09  0.933E-05    3.64     210.2  T
   7    -32.0764729 -0.200373E-10  0.242E-05    3.64     810.7  T
   8    -32.0764729 -0.222400E-11  0.940E-06    3.64    2087.1  T
   9    -32.0764729 -0.212452E-11  0.324E-06    3.64    6049.4  T
     SCC iter.                  ...        0 min,  0.078 sec
     gradient                   ...        0 min,  0.002 sec
 * total energy  :   -31.5553389 Eh     change       -0.1500783E-04 Eh
   gradient norm :     0.0011524 Eh/α   predicted    -0.5745700E-05 ( -61.72%)
   displ. norm   :     0.1452802 α      lambda       -0.2298950E-04
   maximum displ.:     0.0888249 α      in ANC's #4, #1, #2, ...

........................................................................
.............................. CYCLE   25 ..............................
........................................................................

 iter      E             dE          RMSdq      gap      omega  full diag
   1    -32.0763570 -0.320764E+02  0.453E-02    3.63       0.0  T
   2    -32.0763573 -0.268226E-06  0.264E-02    3.63       1.0  T
   3    -32.0763572  0.686219E-07  0.329E-03    3.63       6.0  T
   4    -32.0763573 -0.913629E-07  0.141E-03    3.63      13.9  T
   5    -32.0763574 -0.274250E-07  0.428E-04    3.63      45.8  T
   6    -32.0763574 -0.216561E-08  0.237E-04    3.63      82.7  T
   7    -32.0763574 -0.939906E-10  0.538E-05    3.63     364.7  T
   8    -32.0763574 -0.373106E-10  0.186E-05    3.63    1056.2  T
   9    -32.0763574 -0.648015E-11  0.683E-06    3.63    2871.0  T
  10    -32.0763574 -0.213163E-12  0.239E-06    3.63    8209.5  T
     SCC iter.                  ...        0 min,  0.079 sec
     gradient                   ...        0 min,  0.002 sec
 * total energy  :   -31.5553648 Eh     change       -0.2584551E-04 Eh
   gradient norm :     0.0007545 Eh/α   predicted    -0.1160387E-04 ( -55.10%)
   displ. norm   :     0.1924543 α      lambda       -0.2074662E-04
   maximum displ.:     0.1126611 α      in ANC's #1, #4, #2, ...

........................................................................
.............................. CYCLE   26 ..............................
........................................................................

 iter      E             dE          RMSdq      gap      omega  full diag
   1    -32.0760076 -0.320760E+02  0.631E-02    3.64       0.0  T
   2    -32.0760083 -0.617590E-06  0.364E-02    3.64       1.0  T
   3    -32.0760081  0.143459E-06  0.569E-03    3.64       3.4  T
   4    -32.0760083 -0.218765E-06  0.216E-03    3.64       9.1  T
   5    -32.0760084 -0.379377E-07  0.732E-04    3.64      26.8  T
   6    -32.0760084 -0.874462E-08  0.291E-04    3.64      67.5  T
   7    -32.0760084 -0.213710E-09  0.800E-05    3.64     245.2  T
   8    -32.0760084 -0.260272E-10  0.346E-05    3.64     567.1  T
   9    -32.0760084 -0.263967E-10  0.864E-06    3.64    2270.4  T
  10    -32.0760084 -0.270006E-12  0.373E-06    3.64    5258.6  T
     SCC iter.                  ...        0 min,  0.078 sec
     gradient                   ...        0 min,  0.002 sec
 * total energy  :   -31.5553854 Eh     change       -0.2066993E-04 Eh
   gradient norm :     0.0013540 Eh/α   predicted    -0.1054907E-04 ( -48.96%)
   displ. norm   :     0.1368280 α      lambda       -0.1485994E-04
   maximum displ.:     0.0841323 α      in ANC's #1, #2, #4, ...

........................................................................
.............................. CYCLE   27 ..............................
........................................................................

 iter      E             dE          RMSdq      gap      omega  full diag
   1    -32.0762140 -0.320762E+02  0.456E-02    3.64       0.0  T
   2    -32.0762142 -0.229037E-06  0.265E-02    3.64       1.0  T
   3    -32.0762142  0.322597E-07  0.278E-03    3.64       7.1  T
   4    -32.0762142 -0.502679E-07  0.127E-03    3.64      15.5  T
   5    -32.0762142 -0.254964E-07  0.341E-04    3.64      57.5  T
   6    -32.0762142 -0.110120E-08  0.185E-04    3.64     106.2  T
   7    -32.0762142 -0.376232E-10  0.507E-05    3.64     386.6  T
   8    -32.0762142 -0.220339E-10  0.202E-05    3.64     972.4  T
   9    -32.0762142 -0.697042E-11  0.551E-06    3.64    3560.1  T
  10    -32.0762142 -0.433431E-12  0.268E-06    3.64    7308.0  T
     SCC iter.                  ...        0 min,  0.077 sec
     gradient                   ...        0 min,  0.002 sec
 * total energy  :   -31.5554037 Eh     change       -0.1822655E-04 Eh
   gradient norm :     0.0011511 Eh/α   predicted    -0.7492130E-05 ( -58.89%)
   displ. norm   :     0.1326262 α      lambda       -0.1872085E-04
   maximum displ.:     0.0846398 α      in ANC's #1, #2, #3, ...

........................................................................
.............................. CYCLE   28 ..............................
........................................................................

 iter      E             dE          RMSdq      gap      omega  full diag
   1    -32.0767736 -0.320768E+02  0.465E-02    3.64       0.0  T
   2    -32.0767737 -0.146894E-06  0.271E-02    3.64       1.0  T
   3    -32.0767737  0.443024E-07  0.256E-03    3.64       7.7  T
   4    -32.0767737 -0.762062E-07  0.951E-04    3.64      20.6  T
   5    -32.0767738 -0.933300E-08  0.390E-04    3.64      50.3  T
   6    -32.0767738 -0.101267E-08  0.181E-04    3.64     108.1  T
   7    -32.0767738 -0.537739E-10  0.455E-05    3.64     430.7  T
   8    -32.0767738 -0.315694E-10  0.188E-05    3.64    1043.7  T
   9    -32.0767738 -0.324007E-11  0.759E-06    3.64    2582.9  T
  10    -32.0767738 -0.852651E-13  0.186E-06    3.64   10566.6  T
     SCC iter.                  ...        0 min,  0.078 sec
     gradient                   ...        0 min,  0.002 sec
 * total energy  :   -31.5554279 Eh     change       -0.2425986E-04 Eh
   gradient norm :     0.0007311 Eh/α   predicted    -0.9436888E-05 ( -61.10%)
   displ. norm   :     0.2015726 α      lambda       -0.2615772E-04
   maximum displ.:     0.1284372 α      in ANC's #1, #2, #3, ...

........................................................................
.............................. CYCLE   29 ..............................
........................................................................

 iter      E             dE          RMSdq      gap      omega  full diag
   1    -32.0765526 -0.320766E+02  0.722E-02    3.64       0.0  T
   2    -32.0765529 -0.373883E-06  0.422E-02    3.64       1.0  T
   3    -32.0765529  0.755510E-07  0.432E-03    3.64       4.5  T
   4    -32.0765530 -0.156737E-06  0.137E-03    3.64      14.3  T
   5    -32.0765530 -0.121313E-07  0.660E-04    3.64      29.7  T
   6    -32.0765530 -0.464648E-08  0.292E-04    3.64      67.2  T
   7    -32.0765530 -0.141085E-09  0.662E-05    3.64     296.2  T
   8    -32.0765530 -0.548468E-10  0.294E-05    3.64     666.9  T
   9    -32.0765530 -0.876099E-11  0.138E-05    3.64    1422.8  T
  10    -32.0765530 -0.277112E-12  0.325E-06    3.64    6041.0  T
  11    -32.0765530 -0.142109E-13  0.120E-06    3.64   16280.5  T
     SCC iter.                  ...        0 min,  0.075 sec
     gradient                   ...        0 min,  0.002 sec
 * total energy  :   -31.5554607 Eh     change       -0.3274645E-04 Eh
   gradient norm :     0.0009917 Eh/α   predicted    -0.1331946E-04 ( -59.33%)
   displ. norm   :     0.2243981 α      lambda       -0.2416112E-04
   maximum displ.:     0.1452918 α      in ANC's #1, #2, #3, ...

........................................................................
.............................. CYCLE   30 ..............................
........................................................................

 iter      E             dE          RMSdq      gap      omega  full diag
   1    -32.0761279 -0.320761E+02  0.830E-02    3.64       0.0  T
   2    -32.0761284 -0.471996E-06  0.485E-02    3.64       1.0  T
   3    -32.0761282  0.129023E-06  0.523E-03    3.64       3.7  T
   4    -32.0761285 -0.249186E-06  0.149E-03    3.64      13.1  T
   5    -32.0761285 -0.102654E-07  0.757E-04    3.64      25.9  T
   6    -32.0761285 -0.601976E-08  0.292E-04    3.64      67.1  T
   7    -32.0761285 -0.103853E-09  0.750E-05    3.64     261.4  T
   8    -32.0761285 -0.685390E-10  0.333E-05    3.64     588.9  T
   9    -32.0761285 -0.148219E-10  0.134E-05    3.64    1460.2  T
  10    -32.0761285 -0.262901E-12  0.379E-06    3.64    5175.3  T
  11    -32.0761285 -0.113687E-12  0.127E-06    3.64   15414.9  T
     SCC iter.                  ...        0 min,  0.079 sec
     gradient                   ...        0 min,  0.002 sec
 * total energy  :   -31.5554901 Eh     change       -0.2943094E-04 Eh
   gradient norm :     0.0010811 Eh/α   predicted    -0.1235165E-04 ( -58.03%)
   displ. norm   :     0.2117526 α      lambda       -0.1981273E-04
   maximum displ.:     0.1402416 α      in ANC's #1, #2, #3, ...

........................................................................
.............................. CYCLE   31 ..............................
........................................................................

 iter      E             dE          RMSdq      gap      omega  full diag
   1    -32.0760781 -0.320761E+02  0.815E-02    3.64       0.0  T
   2    -32.0760786 -0.460568E-06  0.477E-02    3.64       1.0  T
   3    -32.0760784  0.131258E-06  0.510E-03    3.65       3.8  T
   4    -32.0760787 -0.239685E-06  0.150E-03    3.65      13.1  T
   5    -32.0760787 -0.151116E-07  0.724E-04    3.65      27.1  T
   6    -32.0760787 -0.617197E-08  0.293E-04    3.65      67.0  T
   7    -32.0760787 -0.117872E-09  0.685E-05    3.65     286.5  T
   8    -32.0760787 -0.632241E-10  0.295E-05    3.65     664.6  T
   9    -32.0760787 -0.124558E-10  0.115E-05    3.65    1699.6  T
  10    -32.0760787 -0.277112E-12  0.372E-06    3.65    5267.1  T
  11    -32.0760787 -0.568434E-13  0.118E-06    3.65   16583.5  T
     SCC iter.                  ...        0 min,  0.075 sec
     gradient                   ...        0 min,  0.002 sec
 * total energy  :   -31.5555145 Eh     change       -0.2444227E-04 Eh
   gradient norm :     0.0009321 Eh/α   predicted    -0.1010430E-04 ( -58.66%)
   displ. norm   :     0.2318377 α      lambda       -0.2021705E-04
   maximum displ.:     0.1563452 α      in ANC's #1, #2, #3, ...

........................................................................
.............................. CYCLE   32 ..............................
........................................................................

 iter      E             dE          RMSdq      gap      omega  full diag
   1    -32.0759180 -0.320759E+02  0.925E-02    3.65       0.0  T
   2    -32.0759186 -0.608410E-06  0.541E-02    3.65       1.0  T
   3    -32.0759184  0.184572E-06  0.584E-03    3.65       3.4  T
   4    -32.0759187 -0.324302E-06  0.166E-03    3.65      11.8  T
   5    -32.0759187 -0.177773E-07  0.800E-04    3.65      24.5  T
   6    -32.0759187 -0.753818E-08  0.324E-04    3.65      60.5  T
   7    -32.0759187 -0.169919E-09  0.815E-05    3.65     240.7  T
   8    -32.0759187 -0.742659E-10  0.331E-05    3.65     591.6  T
   9    -32.0759187 -0.170530E-10  0.132E-05    3.65    1487.3  T
  10    -32.0759187 -0.376588E-12  0.437E-06    3.65    4485.6  T
  11    -32.0759187 -0.106581E-12  0.135E-06    3.65   14571.7  T
     SCC iter.                  ...        0 min,  0.075 sec
     gradient                   ...        0 min,  0.002 sec
 * total energy  :   -31.5555394 Eh     change       -0.2486046E-04 Eh
   gradient norm :     0.0010855 Eh/α   predicted    -0.1035140E-04 ( -58.36%)
   displ. norm   :     0.3022258 α      lambda       -0.2519715E-04
   maximum displ.:     0.2063184 α      in ANC's #1, #2, #5, ...

........................................................................
.............................. CYCLE   33 ..............................
........................................................................

 iter      E             dE          RMSdq      gap      omega  full diag
   1    -32.0757918 -0.320758E+02  0.123E-01    3.65       0.0  T
   2    -32.0757928 -0.983166E-06  0.718E-02    3.65       1.0  T
   3    -32.0757925  0.343281E-06  0.748E-03    3.65       2.6  T
   4    -32.0757931 -0.572211E-06  0.225E-03    3.65       8.7  T
   5    -32.0757931 -0.446254E-07  0.105E-03    3.65      18.7  T
   6    -32.0757931 -0.137601E-07  0.428E-04    3.65      45.8  T
   7    -32.0757931 -0.277332E-09  0.927E-05    3.65     211.5  T
   8    -32.0757931 -0.123492E-09  0.385E-05    3.65     509.6  T
   9    -32.0757931 -0.211458E-10  0.148E-05    3.65    1326.9  T
  10    -32.0757931 -0.390799E-12  0.503E-06    3.65    3900.7  T
  11    -32.0757931 -0.497380E-13  0.166E-06    3.65   11824.1  T
     SCC iter.                  ...        0 min,  0.075 sec
     gradient                   ...        0 min,  0.002 sec
 * total energy  :   -31.5555675 Eh     change       -0.2808610E-04 Eh
   gradient norm :     0.0014086 Eh/α   predicted    -0.1311032E-04 ( -53.32%)
   displ. norm   :     0.3130413 α      lambda       -0.2442100E-04
   maximum displ.:     0.2123501 α      in ANC's #1, #2, #5, ...

........................................................................
.............................. CYCLE   34 ..............................
........................................................................

 iter      E             dE          RMSdq      gap      omega  full diag
   1    -32.0761091 -0.320761E+02  0.131E-01    3.65       0.0  T
   2    -32.0761102 -0.109072E-05  0.766E-02    3.65       1.0  T
   3    -32.0761099  0.295658E-06  0.746E-03    3.65       2.6  T
   4    -32.0761104 -0.539967E-06  0.228E-03    3.65       8.6  T
   5    -32.0761105 -0.411753E-07  0.105E-03    3.65      18.8  T
   6    -32.0761105 -0.137906E-07  0.447E-04    3.65      43.8  T
   7    -32.0761105 -0.373156E-09  0.989E-05    3.65     198.3  T
   8    -32.0761105 -0.116437E-09  0.394E-05    3.65     497.3  T
   9    -32.0761105 -0.238671E-10  0.155E-05    3.65    1261.4  T
  10    -32.0761105 -0.433431E-12  0.564E-06    3.65    3480.2  T
  11    -32.0761105 -0.106581E-12  0.184E-06    3.65   10685.2  T
     SCC iter.                  ...        0 min,  0.075 sec
     gradient                   ...        0 min,  0.002 sec
 * total energy  :   -31.5555920 Eh     change       -0.2450588E-04 Eh
   gradient norm :     0.0015124 Eh/α   predicted    -0.1274288E-04 ( -48.00%)
   displ. norm   :     0.1930538 α      lambda       -0.1741744E-04
   maximum displ.:     0.1311754 α      in ANC's #2, #1, #4, ...

........................................................................
.............................. CYCLE   35 ..............................
........................................................................

 iter      E             dE          RMSdq      gap      omega  full diag
   1    -32.0771624 -0.320772E+02  0.817E-02    3.66       0.0  T
   2    -32.0771627 -0.368070E-06  0.479E-02    3.66       1.0  T
   3    -32.0771626  0.137672E-06  0.439E-03    3.66       4.5  T
   4    -32.0771628 -0.232117E-06  0.147E-03    3.66      13.4  T
   5    -32.0771628 -0.200445E-07  0.608E-04    3.66      32.3  T
   6    -32.0771629 -0.389042E-08  0.299E-04    3.66      65.6  T
   7    -32.0771629 -0.237748E-09  0.627E-05    3.66     312.8  T
   8    -32.0771629 -0.621299E-10  0.197E-05    3.66     993.6  T
   9    -32.0771629 -0.409273E-11  0.870E-06    3.66    2255.2  T
  10    -32.0771629 -0.170530E-12  0.311E-06    3.66    6309.5  T
     SCC iter.                  ...        0 min,  0.074 sec
     gradient                   ...        0 min,  0.002 sec
 * total energy  :   -31.5556096 Eh     change       -0.1764158E-04 Eh
   gradient norm :     0.0010929 Eh/α   predicted    -0.8855005E-05 ( -49.81%)
   displ. norm   :     0.3480771 α      lambda       -0.1759785E-04
   maximum displ.:     0.2373137 α      in ANC's #2, #1, #4, ...

........................................................................
.............................. CYCLE   36 ..............................
........................................................................

 iter      E             dE          RMSdq      gap      omega  full diag
   1    -32.0754201 -0.320754E+02  0.146E-01    3.64       0.0  T
   2    -32.0754212 -0.114292E-05  0.858E-02    3.64       1.0  T
   3    -32.0754210  0.178184E-06  0.713E-03    3.64       2.7  T
   4    -32.0754215 -0.465997E-06  0.223E-03    3.65       8.8  T
   5    -32.0754215 -0.308164E-07  0.112E-03    3.64      17.5  T
   6    -32.0754215 -0.172021E-07  0.509E-04    3.64      38.5  T
   7    -32.0754215 -0.657067E-09  0.993E-05    3.64     197.6  T
   8    -32.0754215 -0.967262E-10  0.371E-05    3.64     528.5  T
   9    -32.0754215 -0.108713E-10  0.173E-05    3.64    1133.8  T
  10    -32.0754215 -0.227374E-12  0.577E-06    3.64    3398.3  T
  11    -32.0754215 -0.298428E-12  0.226E-06    3.64    8663.3  T
     SCC iter.                  ...        0 min,  0.075 sec
     gradient                   ...        0 min,  0.002 sec
 * total energy  :   -31.5556172 Eh     change       -0.7544506E-05 Eh
   gradient norm :     0.0021661 Eh/α   predicted    -0.9275131E-05 (  22.94%)
   displ. norm   :     0.0501014 α      lambda       -0.2169600E-04
   maximum displ.:     0.0319754 α      in ANC's #5, #3, #1, ...

........................................................................
.............................. CYCLE   37 ..............................
........................................................................

 iter      E             dE          RMSdq      gap      omega  full diag
   1    -32.0769869 -0.320770E+02  0.172E-02    3.65       0.0  T
   2    -32.0769870 -0.841680E-07  0.101E-02    3.65       1.9  T
   3    -32.0769870  0.457136E-07  0.255E-03    3.65       7.7  T
   4    -32.0769871 -0.650492E-07  0.427E-04    3.65      46.0  T
   5    -32.0769871 -0.115867E-08  0.220E-04    3.65      89.1  T
   6    -32.0769871 -0.602675E-09  0.986E-05    3.65     198.9  T
   7    -32.0769871 -0.653699E-10  0.369E-05    3.65     530.9  T
   8    -32.0769871 -0.126690E-10  0.132E-05    3.65    1487.2  T
   9    -32.0769871 -0.121503E-11  0.432E-06    3.65    4537.8  T
  10    -32.0769871  0.000000E+00  0.189E-06    3.65   10355.2  T
     SCC iter.                  ...        0 min,  0.075 sec
     gradient                   ...        0 min,  0.002 sec
 * total energy  :   -31.5556302 Eh     change       -0.1298349E-04 Eh
   gradient norm :     0.0013891 Eh/α   predicted    -0.1087552E-04 ( -16.24%)
   displ. norm   :     0.0654280 α      lambda       -0.8569915E-05
   maximum displ.:     0.0315600 α      in ANC's #5, #2, #1, ...

........................................................................
.............................. CYCLE   38 ..............................
........................................................................

 iter      E             dE          RMSdq      gap      omega  full diag
   1    -32.0773214 -0.320773E+02  0.254E-02    3.65       0.0  T
   2    -32.0773215 -0.602830E-07  0.150E-02    3.65       1.3  T
   3    -32.0773215  0.283104E-07  0.148E-03    3.65      13.3  T
   4    -32.0773215 -0.398698E-07  0.577E-04    3.65      34.0  T
   5    -32.0773215 -0.463426E-08  0.225E-04    3.65      87.0  T
   6    -32.0773215 -0.146841E-09  0.106E-04    3.65     185.0  T
   7    -32.0773215 -0.489990E-10  0.331E-05    3.65     592.9  T
   8    -32.0773215 -0.155538E-10  0.973E-06    3.65    2016.3  T
   9    -32.0773215 -0.838440E-12  0.417E-06    3.65    4698.4  T
     SCC iter.                  ...        0 min,  0.074 sec
     gradient                   ...        0 min,  0.002 sec
 * total energy  :   -31.5556363 Eh     change       -0.6128414E-05 Eh
   gradient norm :     0.0012901 Eh/α   predicted    -0.4295940E-05 ( -29.90%)
   displ. norm   :     0.0869428 α      lambda       -0.5208857E-05
   maximum displ.:     0.0555243 α      in ANC's #2, #1, #5, ...

........................................................................
.............................. CYCLE   39 ..............................
........................................................................

 iter      E             dE          RMSdq      gap      omega  full diag
   1    -32.0772814 -0.320773E+02  0.359E-02    3.65       0.0  T
   2    -32.0772814 -0.629090E-07  0.210E-02    3.65       1.0  T
   3    -32.0772814  0.423420E-07  0.183E-03    3.65      10.7  T
   4    -32.0772815 -0.580330E-07  0.642E-04    3.65      30.5  T
   5    -32.0772815 -0.664105E-08  0.248E-04    3.65      79.2  T
   6    -32.0772815 -0.578986E-09  0.104E-04    3.65     188.9  T
   7    -32.0772815 -0.890310E-11  0.223E-05    3.65     880.2  T
   8    -32.0772815 -0.397193E-11  0.862E-06    3.65    2274.7  T
   9    -32.0772815 -0.101608E-11  0.333E-06    3.65    5883.5  T
     SCC iter.                  ...        0 min,  0.074 sec
     gradient                   ...        0 min,  0.002 sec
 * total energy  :   -31.5556421 Eh     change       -0.5815388E-05 Eh
   gradient norm :     0.0008211 Eh/α   predicted    -0.2613935E-05 ( -55.05%)
   displ. norm   :     0.1629107 α      lambda       -0.8071455E-05
   maximum displ.:     0.0995313 α      in ANC's #2, #1, #4, ...

........................................................................
.............................. CYCLE   40 ..............................
........................................................................

 iter      E             dE          RMSdq      gap      omega  full diag
   1    -32.0764698 -0.320765E+02  0.655E-02    3.64       0.0  T
   2    -32.0764700 -0.245819E-06  0.384E-02    3.65       1.0  T
   3    -32.0764699  0.943376E-07  0.350E-03    3.65       5.6  T
   4    -32.0764701 -0.151054E-06  0.119E-03    3.65      16.5  T
   5    -32.0764701 -0.151776E-07  0.510E-04    3.65      38.5  T
   6    -32.0764701 -0.270915E-08  0.206E-04    3.65      95.1  T
   7    -32.0764701 -0.369766E-10  0.463E-05    3.65     423.6  T
   8    -32.0764701 -0.316760E-10  0.181E-05    3.65    1080.8  T
   9    -32.0764701 -0.334666E-11  0.661E-06    3.65    2966.3  T
  10    -32.0764701 -0.710543E-13  0.235E-06    3.65    8335.2  T
     SCC iter.                  ...        0 min,  0.074 sec
     gradient                   ...        0 min,  0.002 sec
 * total energy  :   -31.5556494 Eh     change       -0.7321193E-05 Eh
   gradient norm :     0.0009584 Eh/α   predicted    -0.4084912E-05 ( -44.20%)
   displ. norm   :     0.0654026 α      lambda       -0.5750022E-05
   maximum displ.:     0.0391968 α      in ANC's #5, #10, #3, ...

........................................................................
.............................. CYCLE   41 ..............................
........................................................................

 iter      E             dE          RMSdq      gap      omega  full diag
   1    -32.0766394 -0.320766E+02  0.173E-02    3.65       0.0  T
   2    -32.0766394 -0.284270E-07  0.103E-02    3.65       1.9  T
   3    -32.0766394  0.590099E-07  0.170E-03    3.65      11.6  T
   4    -32.0766394 -0.706902E-07  0.446E-04    3.65      43.9  T
   5    -32.0766394 -0.844224E-09  0.212E-04    3.65      92.6  T
   6    -32.0766394 -0.151836E-09  0.837E-05    3.65     234.2  T
   7    -32.0766394 -0.895213E-10  0.277E-05    3.65     709.0  T
   8    -32.0766394 -0.635225E-11  0.745E-06    3.65    2631.1  T
   9    -32.0766394 -0.831335E-12  0.301E-06    3.65    6509.0  T
     SCC iter.                  ...        0 min,  0.074 sec
     gradient                   ...        0 min,  0.002 sec
 * total energy  :   -31.5556553 Eh     change       -0.5834633E-05 Eh
   gradient norm :     0.0010605 Eh/α   predicted    -0.2883594E-05 ( -50.58%)
   displ. norm   :     0.0828259 α      lambda       -0.5189458E-05
   maximum displ.:     0.0364235 α      in ANC's #5, #10, #3, ...

........................................................................
.............................. CYCLE   42 ..............................
........................................................................

 iter      E             dE          RMSdq      gap      omega  full diag
   1    -32.0766435 -0.320766E+02  0.250E-02    3.65       0.0  T
   2    -32.0766436 -0.476068E-07  0.147E-02    3.65       1.3  T
   3    -32.0766436  0.150795E-07  0.147E-03    3.65      13.3  T
   4    -32.0766436 -0.238831E-07  0.578E-04    3.65      33.9  T
   5    -32.0766436 -0.333151E-08  0.213E-04    3.65      92.2  T
   6    -32.0766436 -0.210484E-09  0.997E-05    3.65     196.6  T
   7    -32.0766436 -0.289546E-10  0.291E-05    3.65     673.9  T
   8    -32.0766436 -0.123634E-10  0.843E-06    3.65    2325.7  T
   9    -32.0766436 -0.103739E-11  0.345E-06    3.65    5691.7  T
     SCC iter.                  ...        0 min,  0.074 sec
     gradient                   ...        0 min,  0.002 sec
 * total energy  :   -31.5556601 Eh     change       -0.4865161E-05 Eh
   gradient norm :     0.0009117 Eh/α   predicted    -0.2606935E-05 ( -46.42%)
   displ. norm   :     0.0546274 α      lambda       -0.3937647E-05
   maximum displ.:     0.0242016 α      in ANC's #10, #4, #1, ...
 * RMSD in coord.:     0.5775524 α      energy gain  -0.4216454E-03 Eh

generating ANC from model Hessian ...
Using Lindh-Hessian (1995)
 Shifting diagonal of input Hessian by   9.125656997985711E-003
 Lowest  eigenvalues of input Hessian
    0.000000    0.000000    0.000000    0.000000    0.000000    0.000000
    0.010000    0.010068    0.010620    0.011265    0.012144    0.012451
    0.015022    0.017073    0.018434    0.019338    0.024236    0.024870
 Highest eigenvalues
    1.364178    1.551816    1.577068    1.882082    1.987927    2.005756
 

........................................................................
.............................. CYCLE   43 ..............................
........................................................................

 iter      E             dE          RMSdq      gap      omega  full diag
   1    -32.0767273 -0.320767E+02  0.158E-02    3.65       0.0  T
   2    -32.0767273 -0.291448E-07  0.928E-03    3.65       2.1  T
   3    -32.0767273  0.236556E-07  0.117E-03    3.65      16.7  T
   4    -32.0767273 -0.281913E-07  0.465E-04    3.65      42.2  T
   5    -32.0767273 -0.351532E-08  0.178E-04    3.65     109.9  T
   6    -32.0767273 -0.897984E-10  0.724E-05    3.65     270.9  T
   7    -32.0767273 -0.282157E-10  0.269E-05    3.65     729.0  T
   8    -32.0767273 -0.918021E-11  0.653E-06    3.65    3002.2  T
   9    -32.0767273 -0.341061E-12  0.353E-06    3.65    5560.4  T
     SCC iter.                  ...        0 min,  0.075 sec
     gradient                   ...        0 min,  0.002 sec
 * total energy  :   -31.5556634 Eh     change       -0.3289308E-05 Eh
   gradient norm :     0.0006369 Eh/α   predicted     0.0000000E+00 (-100.00%)
   displ. norm   :     0.0120278 α      lambda       -0.4109074E-06
   maximum displ.:     0.0069591 α      in ANC's #2, #6, #3, ...

........................................................................
.............................. CYCLE   44 ..............................
........................................................................

 iter      E             dE          RMSdq      gap      omega  full diag
   1    -32.0769451 -0.320769E+02  0.536E-03    3.65       0.0  T
   2    -32.0769451 -0.576611E-08  0.314E-03    3.65       6.2  T
   3    -32.0769451  0.453675E-08  0.702E-04    3.65      27.9  T
   4    -32.0769451 -0.600834E-08  0.127E-04    3.65     154.7  T
   5    -32.0769451 -0.174488E-09  0.680E-05    3.65     288.6  T
   6    -32.0769451 -0.293383E-10  0.250E-05    3.65     783.4  T
   7    -32.0769451 -0.256506E-11  0.985E-06    3.65    1990.5  T
   8    -32.0769451 -0.703437E-12  0.373E-06    3.65    5264.6  T
     SCC iter.                  ...        0 min,  0.074 sec
     gradient                   ...        0 min,  0.002 sec
 * total energy  :   -31.5556647 Eh     change       -0.1330423E-05 Eh
   gradient norm :     0.0001898 Eh/α   predicted    -0.7797057E-06 ( -41.39%)
   displ. norm   :     0.0140482 α      lambda       -0.6992566E-06
   maximum displ.:     0.0087519 α      in ANC's #2, #3, #4, ...

........................................................................
.............................. CYCLE   45 ..............................
........................................................................

 iter      E             dE          RMSdq      gap      omega  full diag
   1    -32.0769908 -0.320770E+02  0.451E-03    3.65       0.0  T
   2    -32.0769908 -0.361501E-08  0.256E-03    3.65       7.7  T
   3    -32.0769908  0.199260E-08  0.462E-04    3.65      42.4  T
   4    -32.0769908 -0.167753E-08  0.237E-04    3.65      82.7  T
   5    -32.0769908 -0.118313E-08  0.574E-05    3.65     341.9  T
   6    -32.0769908 -0.838440E-12  0.252E-05    3.65     778.9  T
   7    -32.0769908 -0.529354E-11  0.710E-06    3.65    2763.1  T
   8    -32.0769908 -0.746070E-12  0.261E-06    3.65    7519.9  T
     SCC iter.                  ...        0 min,  0.074 sec
     gradient                   ...        0 min,  0.002 sec
 * total energy  :   -31.5556655 Eh     change       -0.7647251E-06 Eh
   gradient norm :     0.0002602 Eh/α   predicted    -0.3531857E-06 ( -53.82%)
   displ. norm   :     0.0168962 α      lambda       -0.5458390E-06
   maximum displ.:     0.0113167 α      in ANC's #2, #3, #1, ...

........................................................................
.............................. CYCLE   46 ..............................
........................................................................

 iter      E             dE          RMSdq      gap      omega  full diag
   1    -32.0769343 -0.320769E+02  0.522E-03    3.65       0.0  T
   2    -32.0769343 -0.397606E-08  0.297E-03    3.65       6.6  T
   3    -32.0769343  0.188444E-08  0.416E-04    3.65      47.1  T
   4    -32.0769343 -0.174773E-08  0.213E-04    3.65      92.3  T
   5    -32.0769343 -0.970068E-09  0.520E-05    3.65     377.1  T
   6    -32.0769343 -0.304112E-11  0.253E-05    3.65     774.5  T
   7    -32.0769343 -0.280664E-11  0.775E-06    3.65    2531.3  T
   8    -32.0769343 -0.177636E-12  0.200E-06    3.65    9828.8  T
     SCC iter.                  ...        0 min,  0.073 sec
     gradient                   ...        0 min,  0.002 sec
 * total energy  :   -31.5556661 Eh     change       -0.5920429E-06 Eh
   gradient norm :     0.0001453 Eh/α   predicted    -0.2776068E-06 ( -53.11%)
   displ. norm   :     0.0168962 α      lambda        0.0000000E+00
   maximum displ.:     0.0113167 α      in ANC's #2, #3, #1, ...

........................................................................
.............................. CYCLE   47 ..............................
........................................................................

 iter      E             dE          RMSdq      gap      omega  full diag
   1    -32.0768739 -0.320769E+02  0.522E-03    3.65       0.0  T
   2    -32.0768739 -0.399999E-08  0.297E-03    3.65       6.6  T
   3    -32.0768739  0.189065E-08  0.417E-04    3.65      47.0  T
   4    -32.0768739 -0.175559E-08  0.213E-04    3.65      92.3  T
   5    -32.0768739 -0.970140E-09  0.521E-05    3.65     376.7  T
   6    -32.0768739 -0.301270E-11  0.254E-05    3.65     772.9  T
   7    -32.0768739 -0.283507E-11  0.777E-06    3.65    2524.9  T
   8    -32.0768739 -0.135003E-12  0.200E-06    3.65    9794.8  T
     SCC iter.                  ...        0 min,  0.073 sec
     gradient                   ...        0 min,  0.002 sec
 * total energy  :   -31.5556662 Eh     change       -0.1078522E-06 Eh
   gradient norm :     0.0002117 Eh/α   predicted     0.2571035E-08 (-102.38%)
   displ. norm   :     0.0054015 α      lambda       -0.3016640E-06
   maximum displ.:     0.0031511 α      in ANC's #2, #6, #1, ...

[...]
         :::::::::::::::::::::::::::::::::::::::::::::::::::::

           ------------------------------------------------- 
          |                Numerical Hessian                |
           ------------------------------------------------- 
step length          :   0.00500
SCC accuracy         :   0.30000
Hessian scale factor :   1.00000
frozen atoms in %    :   0.00000    0
RMS gradient         :   0.00002
estimated CPU  time      1.06 min
estimated wall time      0.13 min

writing file <hessian>.

 projected vibrational frequencies (cm⁻¹)
eigval :       -0.00    -0.00    -0.00     0.00     0.00     0.00
eigval :       25.10    64.55    85.36   113.38   161.60   170.58
eigval :      201.67   222.19   248.16   263.14   314.16   361.43
eigval :      366.35   392.79   473.35   585.83   648.63   659.30
eigval :      679.06   690.27   736.68   760.53   769.40   872.84
eigval :      896.04   925.83   931.62   967.52   982.28   995.03
eigval :     1013.64  1017.25  1063.78  1077.67  1084.87  1115.19
eigval :     1123.40  1181.74  1203.80  1222.82  1230.76  1250.48
eigval :     1268.42  1280.26  1317.25  1407.87  1412.77  1421.45
eigval :     1448.98  1451.53  1461.67  1496.55  1499.45  1505.05
eigval :     1506.36  1578.13  1589.21  2936.14  2941.24  2951.14
eigval :     2955.55  3011.76  3012.30  3023.57  3025.46  3034.23
eigval :     3041.23  3054.75  3067.47  3074.41  3086.74  3093.66
           -------------------------------------------------
          |                Property Printout                |
           -------------------------------------------------

    * Orbital Energies and Occupations

         #    Occupation            Energy/Eh            Energy/eV
      -------------------------------------------------------------
         1        2.0000           -0.6587815             -17.9264
       ...           ...                  ...                  ...
        18        2.0000           -0.4754132             -12.9367
        19        2.0000           -0.4741781             -12.9030
        20        2.0000           -0.4670988             -12.7104
        21        2.0000           -0.4610148             -12.5449
        22        2.0000           -0.4564671             -12.4211
        23        2.0000           -0.4434812             -12.0677
        24        2.0000           -0.4381662             -11.9231
        25        2.0000           -0.4239582             -11.5365
        26        2.0000           -0.4162914             -11.3279
        27        2.0000           -0.4071660             -11.0795
        28        2.0000           -0.4029393             -10.9645
        29        2.0000           -0.3995587             -10.8725
        30        2.0000           -0.3641199              -9.9082 (HOMO)
        31                         -0.2300240              -6.2593 (LUMO)
        32                         -0.2215933              -6.0299
        33                         -0.1546692              -4.2088
        34                         -0.1502598              -4.0888
        35                         -0.0932123              -2.5364
        36                          0.0038099               0.1037
        37                          0.0490651               1.3351
        38                          0.0991133               2.6970
        39                          0.1125267               3.0620
        40                          0.1210904               3.2950
        41                          0.1306856               3.5561
       ...                                ...                  ...
        64                          0.7771815              21.1482
      -------------------------------------------------------------
                  HL-Gap            0.1340959 Eh            3.6489 eV
             Fermi-level           -0.2970720 Eh           -8.0837 eV

     #   Z          covCN         q      C6AA      α(0)
     1  15 P        3.029    -0.114   165.415    23.105
     2   6 C        3.747    -0.046    21.461     6.608
     3   1 H        0.926     0.042     2.422     2.434
     4   1 H        0.926     0.040     2.450     2.447
     5   6 C        3.780    -0.096    22.347     6.734
     6   1 H        0.925     0.038     2.472     2.459
     7   1 H        0.925     0.037     2.486     2.466
     8   1 H        0.925     0.033     2.540     2.492
     9   6 C        2.915     0.012    27.742     8.637
    10   6 C        2.956    -0.033    28.819     8.805
    11   6 C        3.033    -0.030    28.718     8.790
    12   6 C        2.920    -0.032    28.787     8.798
    13   6 C        2.918    -0.030    28.749     8.793
    14   6 C        2.920    -0.031    28.775     8.797
    15   1 H        0.926     0.036     2.506     2.475
    16   1 H        0.925     0.035     2.523     2.484
    17   1 H        0.926     0.027     2.629     2.535
    18   1 H        0.926     0.029     2.606     2.525
    19   1 H        0.926     0.028     2.617     2.530
    20   6 C        3.748    -0.046    21.455     6.607
    21   1 H        0.925     0.046     2.369     2.407
    22   1 H        0.926     0.040     2.446     2.446
    23   6 C        3.821    -0.098    22.342     6.727
    24   1 H        0.925     0.039     2.465     2.455
    25   1 H        0.925     0.041     2.434     2.440
    26   1 H        0.925     0.031     2.569     2.507

 Mol. C6AA /au·bohr⁶  :       7599.519670
 Mol. C8AA /au·bohr⁸  :     202588.624434
 Mol. α(0) /au        :        139.500566


Wiberg/Mayer (AO) data.
largest (>0.10) Wiberg bond orders for each atom

 ---------------------------------------------------------------------------
     #   Z sym  total        # sym  WBO       # sym  WBO       # sym  WBO
 ---------------------------------------------------------------------------
     1  15 P    3.374 --    20 C    1.030     9 C    1.018     2 C    1.012
     2   6 C    3.994 --     1 P    1.012     5 C    1.012     4 H    0.957
                             3 H    0.956
     3   1 H    0.998 --     2 C    0.956
     4   1 H    0.998 --     2 C    0.957
     5   6 C    3.997 --     2 C    1.012     7 H    0.985     6 H    0.983
                             8 H    0.983
     6   1 H    0.999 --     5 C    0.983
     7   1 H    0.999 --     5 C    0.985
     8   1 H    0.999 --     5 C    0.983
     9   6 C    3.982 --    10 C    1.404    11 C    1.389     1 P    1.018
                            14 C    0.106
    10   6 C    3.993 --    12 C    1.439     9 C    1.404    15 H    0.961
                            13 C    0.107
    11   6 C    3.992 --    13 C    1.457     9 C    1.389    16 H    0.962
                            12 C    0.110
    12   6 C    3.993 --    14 C    1.442    10 C    1.439    17 H    0.970
                            11 C    0.110
    13   6 C    3.991 --    11 C    1.457    14 C    1.428    18 H    0.970
                            10 C    0.107
    14   6 C    3.992 --    12 C    1.442    13 C    1.428    19 H    0.971
                             9 C    0.106
    15   1 H    0.999 --    10 C    0.961
    16   1 H    0.999 --    11 C    0.962
    17   1 H    0.999 --    12 C    0.970
    18   1 H    0.999 --    13 C    0.970
    19   1 H    0.998 --    14 C    0.971
    20   6 C    3.995 --     1 P    1.030    23 C    1.016    22 H    0.956
                            21 H    0.949
    21   1 H    0.998 --    20 C    0.949
    22   1 H    0.998 --    20 C    0.956
    23   6 C    3.997 --    20 C    1.016    25 H    0.985    26 H    0.985
                            24 H    0.983
    24   1 H    0.998 --    23 C    0.983
    25   1 H    0.998 --    23 C    0.985
    26   1 H    0.999 --    23 C    0.985
 ---------------------------------------------------------------------------

Topologies differ in total number of bonds
Writing topology from bond orders to xtbtopo.mol

molecular dipole:
                 x           y           z       tot (Debye)
 q only:       -0.058      -0.274      -0.151
   full:        0.024      -0.638      -0.142       1.662
molecular quadrupole (traceless):
                xx          xy          yy          xz          yz          zz
 q only:       -1.400      -1.678      -1.200      -1.338       2.720       2.600
  q+dip:       -0.076      -6.683      -4.558      -1.354       6.298       4.635
   full:       -0.133      -4.561      -3.345      -1.554       5.936       3.478

           -------------------------------------------------
          |                Geometry Summary                 |
           -------------------------------------------------

      molecular mass/u    :      166.2002322
   center of mass at/Å    :        2.9652956      -1.0275990      -2.2973040
  moments of inertia/u·Å² :        0.3626889E+03   0.7179635E+03   0.8759811E+03
rotational constants/cm⁻¹ :        0.4647959E-01   0.2347979E-01   0.1924429E-01

 * 24 selected distances

     #   Z          #   Z                                           value/Å
     2   6 C        3   1 H                                       1.0936211
     2   6 C        4   1 H                                       1.0939953
     2   6 C        5   6 C                                       1.5224532
     5   6 C        6   1 H                                       1.0886364
     5   6 C        7   1 H                                       1.0870825
     5   6 C        8   1 H                                       1.0890706
     9   6 C       10   6 C                                       1.3889603
     9   6 C       11   6 C                                       1.3938462
    10   6 C       12   6 C                                       1.3847319
    11   6 C       13   6 C                                       1.3808325
    12   6 C       14   6 C                                       1.3835300
    13   6 C       14   6 C                                       1.3857456
    10   6 C       15   1 H                                       1.0792791 (min)
    11   6 C       16   1 H                                       1.0820446
    12   6 C       17   1 H                                       1.0809621
    13   6 C       18   1 H                                       1.0806041
    14   6 C       19   1 H                                       1.0801826
     1  15 P       20   6 C                                       1.8635232 (max)
    20   6 C       21   1 H                                       1.0920790
    20   6 C       22   1 H                                       1.0942812
    20   6 C       23   6 C                                       1.5243934
    23   6 C       24   1 H                                       1.0883857
    23   6 C       25   1 H                                       1.0880571
    23   6 C       26   1 H                                       1.0892063

 * 3 distinct bonds (by element types)

   Z      Z             #   av. dist./Å        max./Å        min./Å
   1 H    6 C          15     1.0871658     1.0942812     1.0792791
   6 C    6 C           8     1.4205616     1.5243934     1.3808325
   6 C   15 P           1     1.8635232     1.8635232     1.8635232

           -------------------------------------------------
          |               Frequency Printout                |
           -------------------------------------------------
 projected vibrational frequencies (cm⁻¹)
eigval :       -0.00    -0.00    -0.00     0.00     0.00     0.00
eigval :       25.10    64.55    85.36   113.38   161.60   170.58
eigval :      201.67   222.19   248.16   263.14   314.16   361.43
eigval :      366.35   392.79   473.35   585.83   648.63   659.30
eigval :      679.06   690.27   736.68   760.53   769.40   872.84
eigval :      896.04   925.83   931.62   967.52   982.28   995.03
eigval :     1013.64  1017.25  1063.78  1077.67  1084.87  1115.19
eigval :     1123.40  1181.74  1203.80  1222.82  1230.76  1250.48
eigval :     1268.42  1280.26  1317.25  1407.87  1412.77  1421.45
eigval :     1448.98  1451.53  1461.67  1496.55  1499.45  1505.05
eigval :     1506.36  1578.13  1589.21  2936.14  2941.24  2951.14
eigval :     2955.55  3011.76  3012.30  3023.57  3025.46  3034.23
eigval :     3041.23  3054.75  3067.47  3074.41  3086.74  3093.66
 reduced masses (amu)
   1: 10.65   2: 14.60   3: 10.96   4: 14.44   5: 14.03   6: 13.23   7:  9.88   8:  8.77
   9:  9.01  10:  9.82  11:  6.42  12:  7.13  13:  7.23  14:  6.82  15:  6.61  16:  8.73
  17: 13.05  18: 12.87  19: 10.50  20: 18.39  21: 12.85  22: 11.18  23: 13.85  24: 11.31
  25: 14.05  26: 12.64  27:  3.33  28:  6.94  29:  4.74  30:  3.30  31:  3.57  32:  4.14
  33:  2.97  34: 10.39  35:  3.25  36:  3.14  37:  3.64  38:  4.42  39:  9.54  40:  9.07
  41:  8.30  42:  8.50  43:  4.39  44:  1.31  45:  1.90  46:  3.63  47:  3.26  48:  4.24
  49:  4.13  50:  3.44  51: 11.94  52:  2.90  53:  2.94  54:  8.54  55:  2.59  56:  3.91
  57:  5.77  58:  1.53  59:  1.56  60:  1.56  61:  1.54  62: 11.43  63: 11.44  64:  1.93
  65:  1.98  66:  1.52  67:  1.51  68:  1.82  69:  1.87  70:  1.90  71:  1.71  72:  1.43
  73:  1.57  74:  1.80  75:  1.77  76:  1.83  77:  1.88  78:  1.86
 IR intensities (km·mol⁻¹)
   1:  0.19   2:  0.01   3:  0.09   4:  0.01   5:  0.10   6:  0.01   7:  0.10   8:  0.11
   9:  0.13  10:  0.21  11:  0.17  12:  0.22  13:  0.08  14:  0.28  15:  0.11  16:  0.83
  17:  0.25  18:  0.75  19:  0.17  20:  0.67  21:  5.31  22:  0.05  23: 11.77  24:  8.31
  25:  8.63  26: 10.67  27: 19.41  28: 37.45  29: 18.96  30:  0.13  31:  0.11  32:  0.07
  33:  0.00  34:  1.69  35:  5.13  36:  2.19  37:  0.94  38:  4.60  39:  6.32  40:  7.52
  41:  0.24  42:  1.45  43:  0.03  44:  0.02  45:  0.55  46:  2.25  47:  2.45  48:  5.96
  49:  6.86  50:  0.76  51:  0.42  52:  1.72  53:  2.31  54:  0.87  55:  0.81  56:  0.59
  57:  0.03  58:  2.08  59:  1.25  60:  1.30  61:  2.52  62:  0.37  63:  4.18  64:  3.54
  65: 43.07  66: 14.54  67: 22.73  68: 49.29  69: 45.88  70: 23.29  71: 31.22  72: 16.51
  73: 24.01  74: 16.82  75:  8.12  76: 48.72  77: 78.77  78: 22.68
 Raman intensities (Ä⁴*amu⁻¹)
   1:  0.00   2:  0.00   3:  0.00   4:  0.00   5:  0.00   6:  0.00   7:  0.00   8:  0.00
   9:  0.00  10:  0.00  11:  0.00  12:  0.00  13:  0.00  14:  0.00  15:  0.00  16:  0.00
  17:  0.00  18:  0.00  19:  0.00  20:  0.00  21:  0.00  22:  0.00  23:  0.00  24:  0.00
  25:  0.00  26:  0.00  27:  0.00  28:  0.00  29:  0.00  30:  0.00  31:  0.00  32:  0.00
  33:  0.00  34:  0.00  35:  0.00  36:  0.00  37:  0.00  38:  0.00  39:  0.00  40:  0.00
  41:  0.00  42:  0.00  43:  0.00  44:  0.00  45:  0.00  46:  0.00  47:  0.00  48:  0.00
  49:  0.00  50:  0.00  51:  0.00  52:  0.00  53:  0.00  54:  0.00  55:  0.00  56:  0.00
  57:  0.00  58:  0.00  59:  0.00  60:  0.00  61:  0.00  62:  0.00  63:  0.00  64:  0.00
  65:  0.00  66:  0.00  67:  0.00  68:  0.00  69:  0.00  70:  0.00  71:  0.00  72:  0.00
  73:  0.00  74:  0.00  75:  0.00  76:  0.00  77:  0.00  78:  0.00
 output can be read by thermo (or use thermo option).
 writing <g98.out> molden fake output.
 recommended (thermochemical) frequency scaling factor: 1.0
           -------------------------------------------------
          |             Thermodynamic Functions             |
           -------------------------------------------------

Refinement of some symmetry elements was terminated before convergence was reached.
Some symmetry elements may remain unidentified.
Molecule has no symmetry elements
It seems to be the C1 point group
c1  symmetry found (for desy threshold:  0.10E+00) used in thermo

          ...................................................
          :                      SETUP                      :
          :.................................................:
          :  # frequencies                          72      :
          :  # imaginary freq.                       0      :
          :  linear?                             false      :
          :  only rotor calc.                    false      :
          :  symmetry                               c1      :
          :  rotational number                       1      :
          :  scaling factor                  1.0000000      :
          :  rotor cutoff                   50.0000000 cm⁻¹ :
          :  imag. cutoff                  -20.0000000 cm⁻¹ :
          :.................................................:

    mode    ω/cm⁻¹     T·S(HO)/kcal·mol⁻¹    T·S(FR)/kcal·mol⁻¹   T·S(vib)
   ------------------------------------------------------------------------
       1     25.10    -1.84364 (  5.97%)    -1.26045 ( 94.03%)    -1.29525
       2     64.55    -1.28592 ( 73.53%)    -0.98076 ( 26.47%)    -1.20515
       3     85.36    -1.12216 ( 89.47%)    -0.89802 ( 10.53%)    -1.09855
       4    113.38    -0.95714 ( 96.36%)    -0.81395 (  3.64%)    -0.95192
       5    161.60    -0.75462 ( 99.09%)    -0.70898 (  0.91%)    -0.75420
       6    170.58    -0.72425 ( 99.27%)    -0.69297 (  0.73%)    -0.72402
       7    201.67    -0.63144 ( 99.62%)    -0.64338 (  0.38%)    -0.63148
       8    222.19    -0.57876 ( 99.74%)    -0.61467 (  0.26%)    -0.57886
       9    248.16    -0.51985 ( 99.84%)    -0.58192 (  0.16%)    -0.51996
      10    263.14    -0.48922 ( 99.87%)    -0.56456 (  0.13%)    -0.48932
   ------------------------------------------------------------------------

   temp. (K)  partition function   enthalpy   heat capacity  entropy
                                   cal/mol     cal/K/mol   cal/K/mol   J/K/mol
 298.15  VIB  0.142E+05             6118.954     39.486     37.317
         ROT  0.115E+07              888.752      2.981     30.720
         INT  0.164E+11             7007.706     42.466     68.037
         TR   0.207E+28             1481.254      4.968     41.214
         TOT                        8488.9604    47.4346   109.2510   457.1060

       T/K    H(0)-H(T)+PV         H(T)/Eh          T*S/Eh         G(T)/Eh
   ------------------------------------------------------------------------
    298.15    0.135280E-01    0.232470E+00    0.519087E-01    0.180562E+00
   ------------------------------------------------------------------------

         :::::::::::::::::::::::::::::::::::::::::::::::::::::
         ::                  THERMODYNAMIC                  ::
         :::::::::::::::::::::::::::::::::::::::::::::::::::::
         :: total free energy         -31.375106292671 Eh   ::
         ::.................................................::
         :: total energy              -31.555668117925 Eh   ::
         :: zero point energy           0.218942459831 Eh   ::
         :: G(RRHO) w/o ZPVE           -0.038380634577 Eh   ::
         :: G(RRHO) contrib.            0.180561825254 Eh   ::
         :::::::::::::::::::::::::::::::::::::::::::::::::::::

optimized geometry written to: xtbopt.xyz


           -------------------------------------------------
          | TOTAL ENERGY              -31.555668117925 Eh   |
          | TOTAL ENTHALPY            -31.323197638567 Eh   |
          | TOTAL FREE ENERGY         -31.375106292671 Eh   |
          | GRADIENT NORM               0.000018413552 Eh/α |
          | HOMO-LUMO GAP               3.648934019200 eV   |
           -------------------------------------------------

------------------------------------------------------------------------
 * finished run on 2025/07/14 at 11:35:38.673     
------------------------------------------------------------------------
 total:
 * wall-time:     0 d,  0 h,  0 min,  8.372 sec
 *  cpu-time:     0 d,  0 h,  1 min, 25.791 sec
 * ratio c/w:    10.248 speedup
 SCF:
 * wall-time:     0 d,  0 h,  0 min,  0.086 sec
 *  cpu-time:     0 d,  0 h,  0 min,  0.971 sec
 * ratio c/w:    11.232 speedup
 ANC optimizer:
 * wall-time:     0 d,  0 h,  0 min,  4.984 sec
 *  cpu-time:     0 d,  0 h,  0 min, 58.993 sec
 * ratio c/w:    11.836 speedup
 analytical hessian:
 * wall-time:     0 d,  0 h,  0 min,  3.291 sec
 *  cpu-time:     0 d,  0 h,  0 min, 25.715 sec
 * ratio c/w:     7.815 speedup

