      -----------------------------------------------------------      
     |                   =====================                   |     
     |                           x T B                           |     
     |                   =====================                   |     
     |                         S. Grimme                         |     
     |          Mulliken Center for Theoretical Chemistry        |     
     |                    University of Bonn                     |     
      -----------------------------------------------------------      

   * xtb version 6.7.0 (08769fc) compiled by 'albert@albert-system' on 2024-03-04

   xtb is free software: you can redistribute it and/or modify it under
   the terms of the GNU Lesser General Public License as published by
   the Free Software Foundation, either version 3 of the License, or
   (at your option) any later version.
   
   xtb is distributed in the hope that it will be useful,
   but WITHOUT ANY WARRANTY; without even the implied warranty of
   MERCHANTABILITY or FITNESS FOR A PARTICULAR PURPOSE.  See the
   GNU Lesser General Public License for more details.
   
   Cite this work as:
   * C. Bannwarth, E. Caldeweyher, S. Ehlert, A. Hansen, P. Pracht,
     J. Seibert, S. Spicher, S. Grimme, WIREs Comput. Mol. Sci., 2020, 11,
     e01493. DOI: 10.1002/wcms.1493
   
   for GFN2-xTB:
   * C. Bannwarth, S. Ehlert and S. Grimme., J. Chem. Theory Comput., 2019,
     15, 1652-1671. DOI: 10.1021/acs.jctc.8b01176
   for GFN1-xTB:
   * S. Grimme, C. Bannwarth, P. Shushkov, J. Chem. Theory Comput., 2017,
     13, 1989-2009. DOI: 10.1021/acs.jctc.7b00118
   for GFN0-xTB:
   * P. Pracht, E. Caldeweyher, S. Ehlert, S. Grimme, ChemRxiv, 2019, preprint.
     DOI: 10.26434/chemrxiv.8326202.v1
   for GFN-FF:
   * S. Spicher and S. Grimme, Angew. Chem. Int. Ed., 2020, 59, 15665-15673.
     DOI: 10.1002/anie.202004239
   
   for ALPB and GBSA implicit solvation:
   * S. Ehlert, M. Stahn, S. Spicher, S. Grimme, J. Chem. Theory Comput.,
     2021, 17, 4250-4261. DOI: 10.1021/acs.jctc.1c00471
   
   for ddCOSMO and CPCM-X implicit solvation:
   * M. Stahn, S. Ehlert, S. Grimme, J. Phys. Chem. A,
     2023, XX, XXXX-XXXX. DOI: 10.1021/acs.jpca.3c04382
   
   for DFT-D4:
   * E. Caldeweyher, C. Bannwarth and S. Grimme, J. Chem. Phys., 2017,
     147, 034112. DOI: 10.1063/1.4993215
   * E. Caldeweyher, S. Ehlert, A. Hansen, H. Neugebauer, S. Spicher,
     C. Bannwarth and S. Grimme, J. Chem. Phys., 2019, 150, 154122.
     DOI: 10.1063/1.5090222
   * E. Caldeweyher, J.-M. Mewes, S. Ehlert and S. Grimme, Phys. Chem. Chem. Phys.
     2020, 22, 8499-8512. DOI: 10.1039/D0CP00502A
   
   for sTDA-xTB:
   * S. Grimme and C. Bannwarth, J. Chem. Phys., 2016, 145, 054103.
     DOI: 10.1063/1.4959605
   
   in the mass-spec context:
   * V. Asgeirsson, C. Bauer and S. Grimme, Chem. Sci., 2017, 8, 4879.
     DOI: 10.1039/c7sc00601b
   * J. Koopman and S. Grimme, ACS Omega 2019, 4, 12, 15120-15133.
     DOI: 10.1021/acsomega.9b02011
   
   for metadynamics refer to:
   * S. Grimme, J. Chem. Theory Comput., 2019, 155, 2847-2862
     DOI: 10.1021/acs.jctc.9b00143
   
   for SPH calculations refer to:
   * S. Spicher and S. Grimme, J. Chem. Theory Comput., 2021, 17, 1701-1714
     DOI: 10.1021/acs.jctc.0c01306
   
   for ONIOM refer to:
   * C. Plett, A. Katbashev, S. Ehlert, S. Grimme, M. Bursch,
     Phys. Chem. Chem. Phys., 2023, 25, 17860-17868. DOI: 10.1039/D3CP02178E
   
   for DIPRO refer to:
   * J. Kohn, N. Gildemeister, S. Grimme, D. Fazzi, A. Hansen,
     J. Chem. Phys., 2023, just accepted.
   
   for PTB refer to:
   * S. Grimme, M. Mueller, A. Hansen, J. Chem. Phys., 2023, 158, 124111.
     DOI: 10.1063/5.0137838
   
   with help from (in alphabetical order)
   P. Atkinson, C. Bannwarth, F. Bohle, G. Brandenburg, E. Caldeweyher
   M. Checinski, S. Dohm, S. Ehlert, S. Ehrlich, I. Gerasimov, C. Hölzer
   A. Katbashev, J. Kohn, J. Koopman, C. Lavigne, S. Lehtola, F. März, M. Müller,
   F. Musil, H. Neugebauer, J. Pisarek, C. Plett, P. Pracht, F. Pultar,
   J. Seibert, P. Shushkov, S. Spicher, M. Stahn, M. Steiner, T. Strunk,
   J. Stückrath, T. Rose, and J. Unsleber
   
 * started run on 2025/07/14 at 11:29:35.558     
   ID    Z sym.   atoms
    1   15 P      1
    2    6 C      2, 5, 9-14, 20, 23
    3    1 H      3, 4, 6-8, 15-19, 21, 22, 24-26

           -------------------------------------------------
          |                Calculation Setup                |
           -------------------------------------------------

          program call               : /home/minenky/programs/xtb/xtb-dist/bin/xtb m1_00_PEt2Ph-PBE0-D3-TZ-uniMM_30.xyz --charge 0 --T --ohess extreme --cycles 5000 --acc 0.01 --iterations 5000
          coordinate file            : m1_00_PEt2Ph-PBE0-D3-TZ-uniMM_30.xyz
          omp threads                :                    12

########################################################################
[WARNING] Please study the warnings concerning your input carefully
-1- prog_main_parseArguments: Unknown option '--T' provided
########################################################################

           -------------------------------------------------
          |                 G F N 2 - x T B                 |
           -------------------------------------------------

        Reference                      10.1021/acs.jctc.8b01176
      * Hamiltonian:
        H0-scaling (s, p, d)           1.850000    2.230000    2.230000
        zeta-weighting                 0.500000
      * Dispersion:
        s8                             2.700000
        a1                             0.520000
        a2                             5.000000
        s9                             5.000000
      * Repulsion:
        kExp                           1.500000    1.000000
        rExp                           1.000000
      * Coulomb:
        alpha                          2.000000
        third order                    shell-resolved
        anisotropic                    true
        a3                             3.000000
        a5                             4.000000
        cn-shift                       1.200000
        cn-exp                         4.000000
        max-rad                        5.000000


          ...................................................
          :                      SETUP                      :
          :.................................................:
          :  # basis functions                  65          :
          :  # atomic orbitals                  64          :
          :  # shells                           38          :
          :  # electrons                        60          :
          :  max. iterations                  5000          :
          :  Hamiltonian                  GFN2-xTB          :
          :  restarted?                      false          :
          :  GBSA solvation                  false          :
          :  PC potential                    false          :
          :  electronic temp.          300.0000000     K    :
          :  accuracy                    0.0100000          :
          :  -> integral cutoff          0.4500000E+02      :
          :  -> integral neglect         0.1000000E-09      :
          :  -> SCF convergence          0.1000000E-07 Eh   :
          :  -> wf. convergence          0.1000000E-05 e    :
          :  Broyden damping             0.4000000          :
          :  net charge                          0          :
          :  unpaired electrons                  0          :
          ...................................................

 iter      E             dE          RMSdq      gap      omega  full diag
   1    -32.0134376 -0.320134E+02  0.351E+00    3.95       0.0  T
   2    -32.0570277 -0.435902E-01  0.205E+00    3.59       1.0  T
   3    -32.0570803 -0.525388E-04  0.810E-01    3.38       1.0  T
   4    -32.0576555 -0.575263E-03  0.274E-01    3.43       1.0  T
   5    -32.0589811 -0.132557E-02  0.115E-01    3.45       1.0  T
   6    -32.0591566 -0.175477E-03  0.419E-02    3.44       1.0  T
   7    -32.0591699 -0.132568E-04  0.143E-02    3.45       1.4  T
   8    -32.0591707 -0.808243E-06  0.595E-03    3.45       3.3  T
   9    -32.0591710 -0.331129E-06  0.138E-03    3.45      14.3  T
  10    -32.0591710 -0.270838E-07  0.476E-04    3.45      41.2  T
  11    -32.0591710 -0.374783E-09  0.228E-04    3.45      86.1  T
  12    -32.0591710 -0.469186E-09  0.479E-05    3.45     409.2  T
  13    -32.0591710 -0.327560E-11  0.159E-05    3.45    1235.9  T
  14    -32.0591710 -0.518696E-12  0.431E-06    3.45    4552.6  T
  15    -32.0591710 -0.106581E-12  0.190E-06    3.45   10338.2  T

   *** convergence criteria satisfied after 15 iterations ***

         #    Occupation            Energy/Eh            Energy/eV
      -------------------------------------------------------------
         1        2.0000           -0.6603568             -17.9692
       ...           ...                  ...                  ...
        24        2.0000           -0.4332237             -11.7886
        25        2.0000           -0.4266545             -11.6099
        26        2.0000           -0.4146414             -11.2830
        27        2.0000           -0.4121501             -11.2152
        28        2.0000           -0.4022587             -10.9460
        29        2.0000           -0.4007980             -10.9063
        30        2.0000           -0.3558977              -9.6845 (HOMO)
        31                         -0.2292432              -6.2380 (LUMO)
        32                         -0.2221574              -6.0452
        33                         -0.1534869              -4.1766
        34                         -0.1432548              -3.8982
        35                         -0.1009570              -2.7472
       ...                                ...                  ...
        64                          0.7784685              21.1832
      -------------------------------------------------------------
                  HL-Gap            0.1266545 Eh            3.4464 eV
             Fermi-level           -0.2925705 Eh           -7.9612 eV

 SCC (total)                   0 d,  0 h,  0 min,  0.087 sec
 SCC setup                      ...        0 min,  0.000 sec (  0.148%)
 Dispersion                     ...        0 min,  0.000 sec (  0.141%)
 classical contributions        ...        0 min,  0.000 sec (  0.012%)
 integral evaluation            ...        0 min,  0.002 sec (  2.130%)
 iterations                     ...        0 min,  0.083 sec ( 95.364%)
 molecular gradient             ...        0 min,  0.002 sec (  2.097%)
 printout                       ...        0 min,  0.000 sec (  0.089%)

         :::::::::::::::::::::::::::::::::::::::::::::::::::::
         ::                     SUMMARY                     ::
         :::::::::::::::::::::::::::::::::::::::::::::::::::::
         :: total energy             -31.544404006951 Eh    ::
         :: gradient norm              0.042731967448 Eh/a0 ::
         :: HOMO-LUMO gap              3.446444282544 eV    ::
         ::.................................................::
         :: SCC energy               -32.059064992929 Eh    ::
         :: -> isotropic ES            0.004269916242 Eh    ::
         :: -> anisotropic ES          0.006333673004 Eh    ::
         :: -> anisotropic XC          0.021656198082 Eh    ::
         :: -> dispersion             -0.022988292493 Eh    ::
         :: repulsion energy           0.514660985978 Eh    ::
         :: add. restraining           0.000000000000 Eh    ::
         :: total charge              -0.000000000000 e     ::
         :::::::::::::::::::::::::::::::::::::::::::::::::::::

      ----------------------------------------------------------- 
     |                   =====================                   |
     |                        A N C O P T                        |
     |                   =====================                   |
     |               Approximate Normal Coordinate               |
     |                Rational Function Optimizer                |
      ----------------------------------------------------------- 
      ----------------------------------------------------------- 
     |                   =====================                   |
     |                        A N C O P T                        |
     |                   =====================                   |
     |               Approximate Normal Coordinate               |
     |                Rational Function Optimizer                |
      ----------------------------------------------------------- 

          ...................................................
          :                      SETUP                      :
          :.................................................:
          :   optimization level           extreme          :
          :   max. optcycles                  5000          :
          :   ANC micro-cycles                  20          :
          :   degrees of freedom                72          :
          :.................................................:
          :   RF solver                   davidson          :
          :   write xtbopt.log                true          :
          :   linear?                        false          :
          :   energy convergence         0.5000000E-07 Eh   :
          :   grad. convergence          0.5000000E-04 Eh/α :
          :   maxmium RF displ.          1.0000000          :
          :   Hlow (freq-cutoff)         0.1000000E-01      :
          :   Hmax (freq-cutoff)         5.0000000          :
          :   S6 in model hess.         20.0000000          :
          ...................................................

generating ANC from model Hessian ...
Using Lindh-Hessian (1995)
 Shifting diagonal of input Hessian by   9.323929408091552E-003
 Lowest  eigenvalues of input Hessian
    0.000000    0.000000    0.000000    0.000000    0.000000    0.000000
    0.010000    0.010489    0.010549    0.011062    0.011538    0.011956
    0.015873    0.017991    0.018522    0.019041    0.019467    0.024002
 Highest eigenvalues
    1.347075    1.535539    1.561939    1.864399    1.966014    1.985749
 

........................................................................
.............................. CYCLE    1 ..............................
........................................................................

 iter      E             dE          RMSdq      gap      omega  full diag
   1    -32.0591710 -0.320592E+02  0.894E-07    3.45       0.0  T
   2    -32.0591710  0.923706E-13  0.598E-07    3.45   32773.0  T
   3    -32.0591710 -0.284217E-13  0.381E-07    3.45   51458.8  T
     SCC iter.                  ...        0 min,  0.073 sec
     gradient                   ...        0 min,  0.002 sec
 * total energy  :   -31.5444040 Eh     change        0.2842171E-13 Eh
   gradient norm :     0.0427320 Eh/α   predicted     0.0000000E+00 (-100.00%)
   displ. norm   :     0.2902320 α      lambda       -0.6846746E-02
   maximum displ.:     0.1479662 α      in ANC's #8, #20, #7, ...

........................................................................
.............................. CYCLE    2 ..............................
........................................................................

 iter      E             dE          RMSdq      gap      omega  full diag
   1    -32.0640840 -0.320641E+02  0.393E-01    3.62       0.0  T
   2    -32.0642730 -0.188995E-03  0.195E-01    3.64       1.0  T
   3    -32.0642866 -0.135676E-04  0.633E-02    3.66       1.0  T
   4    -32.0642860  0.580648E-06  0.314E-02    3.66       1.0  T
   5    -32.0642958 -0.972949E-05  0.915E-03    3.66       2.1  T
   6    -32.0642972 -0.146862E-05  0.245E-03    3.66       8.0  T
   7    -32.0642972 -0.934800E-08  0.930E-04    3.66      21.1  T
   8    -32.0642972 -0.244970E-08  0.342E-04    3.66      57.4  T
   9    -32.0642972 -0.186335E-08  0.106E-04    3.66     184.3  T
  10    -32.0642972 -0.129454E-09  0.391E-05    3.66     501.5  T
  11    -32.0642972 -0.327560E-11  0.146E-05    3.66    1345.6  T
  12    -32.0642972 -0.135714E-11  0.338E-06    3.66    5808.8  T
  13    -32.0642972  0.142109E-13  0.199E-06    3.66    9832.9  T
     SCC iter.                  ...        0 min,  0.074 sec
     gradient                   ...        0 min,  0.002 sec
 * total energy  :   -31.5479350 Eh     change       -0.3530951E-02 Eh
   gradient norm :     0.0132922 Eh/α   predicted    -0.3711889E-02 (   5.12%)
   displ. norm   :     0.2270676 α      lambda       -0.1082995E-02
   maximum displ.:     0.1108114 α      in ANC's #10, #7, #4, ...

........................................................................
.............................. CYCLE    3 ..............................
........................................................................

 iter      E             dE          RMSdq      gap      omega  full diag
   1    -32.0675180 -0.320675E+02  0.110E-01    3.62       0.0  T
   2    -32.0675235 -0.553372E-05  0.617E-02    3.61       1.0  T
   3    -32.0675228  0.723313E-06  0.144E-02    3.61       1.4  T
   4    -32.0675234 -0.618744E-06  0.618E-03    3.61       3.2  T
   5    -32.0675241 -0.751709E-06  0.139E-03    3.61      14.1  T
   6    -32.0675242 -0.285276E-07  0.670E-04    3.61      29.3  T
   7    -32.0675242 -0.212302E-08  0.130E-04    3.61     150.7  T
   8    -32.0675242 -0.373817E-10  0.569E-05    3.61     344.9  T
   9    -32.0675242 -0.211813E-10  0.215E-05    3.61     913.0  T
  10    -32.0675242 -0.259348E-11  0.938E-06    3.61    2090.2  T
  11    -32.0675242 -0.731859E-12  0.369E-06    3.61    5311.5  T
     SCC iter.                  ...        0 min,  0.073 sec
     gradient                   ...        0 min,  0.002 sec
 * total energy  :   -31.5486356 Eh     change       -0.7006019E-03 Eh
   gradient norm :     0.0059137 Eh/α   predicted    -0.5697111E-03 ( -18.68%)
   displ. norm   :     0.2008636 α      lambda       -0.4057368E-03
   maximum displ.:     0.1068052 α      in ANC's #4, #7, #2, ...

........................................................................
.............................. CYCLE    4 ..............................
........................................................................

 iter      E             dE          RMSdq      gap      omega  full diag
   1    -32.0681168 -0.320681E+02  0.722E-02    3.60       0.0  T
   2    -32.0681176 -0.762367E-06  0.422E-02    3.60       1.0  T
   3    -32.0681174  0.161990E-06  0.672E-03    3.60       2.9  T
   4    -32.0681178 -0.340399E-06  0.182E-03    3.60      10.8  T
   5    -32.0681178  0.392237E-08  0.750E-04    3.60      26.1  T
   6    -32.0681178 -0.107952E-07  0.401E-04    3.60      48.9  T
   7    -32.0681178 -0.138226E-08  0.897E-05    3.60     218.7  T
   8    -32.0681178 -0.671250E-10  0.394E-05    3.60     497.4  T
   9    -32.0681178 -0.351719E-11  0.141E-05    3.60    1393.8  T
  10    -32.0681178 -0.233769E-11  0.585E-06    3.60    3353.8  T
  11    -32.0681178 -0.497380E-13  0.224E-06    3.60    8746.7  T
     SCC iter.                  ...        0 min,  0.073 sec
     gradient                   ...        0 min,  0.002 sec
 * total energy  :   -31.5489054 Eh     change       -0.2698576E-03 Eh
   gradient norm :     0.0030485 Eh/α   predicted    -0.2110917E-03 ( -21.78%)
   displ. norm   :     0.1792444 α      lambda       -0.1819532E-03
   maximum displ.:     0.0956057 α      in ANC's #4, #3, #2, ...

........................................................................
.............................. CYCLE    5 ..............................
........................................................................

 iter      E             dE          RMSdq      gap      omega  full diag
   1    -32.0683684 -0.320684E+02  0.603E-02    3.60       0.0  T
   2    -32.0683687 -0.381484E-06  0.352E-02    3.60       1.0  T
   3    -32.0683687  0.711748E-07  0.465E-03    3.60       4.2  T
   4    -32.0683688 -0.154614E-06  0.125E-03    3.60      15.7  T
   5    -32.0683688 -0.498350E-08  0.527E-04    3.60      37.2  T
   6    -32.0683688 -0.439738E-08  0.313E-04    3.60      62.6  T
   7    -32.0683688 -0.612026E-09  0.663E-05    3.60     295.8  T
   8    -32.0683688 -0.127898E-10  0.243E-05    3.60     807.2  T
   9    -32.0683688 -0.233769E-11  0.896E-06    3.60    2188.0  T
  10    -32.0683688 -0.119371E-11  0.256E-06    3.60    7664.2  T
     SCC iter.                  ...        0 min,  0.073 sec
     gradient                   ...        0 min,  0.002 sec
 * total energy  :   -31.5490486 Eh     change       -0.1432233E-03 Eh
   gradient norm :     0.0037629 Eh/α   predicted    -0.9389970E-04 ( -34.44%)
   displ. norm   :     0.2855817 α      lambda       -0.2378292E-03
   maximum displ.:     0.1399588 α      in ANC's #4, #3, #1, ...

........................................................................
.............................. CYCLE    6 ..............................
........................................................................

 iter      E             dE          RMSdq      gap      omega  full diag
   1    -32.0683519 -0.320684E+02  0.989E-02    3.59       0.0  T
   2    -32.0683528 -0.836744E-06  0.576E-02    3.60       1.0  T
   3    -32.0683527  0.586301E-07  0.586E-03    3.60       3.3  T
   4    -32.0683530 -0.234989E-06  0.181E-03    3.60      10.8  T
   5    -32.0683530 -0.956910E-08  0.774E-04    3.60      25.3  T
   6    -32.0683530 -0.443009E-08  0.453E-04    3.60      43.3  T
   7    -32.0683530 -0.121906E-08  0.115E-04    3.60     171.1  T
   8    -32.0683530 -0.116927E-09  0.409E-05    3.60     479.9  T
   9    -32.0683530 -0.789413E-11  0.177E-05    3.60    1105.9  T
  10    -32.0683530 -0.319744E-11  0.435E-06    3.60    4506.6  T
  11    -32.0683530 -0.198952E-12  0.238E-06    3.60    8256.3  T
     SCC iter.                  ...        0 min,  0.073 sec
     gradient                   ...        0 min,  0.002 sec
 * total energy  :   -31.5492420 Eh     change       -0.1933607E-03 Eh
   gradient norm :     0.0040925 Eh/α   predicted    -0.1286134E-03 ( -33.49%)
   displ. norm   :     0.4002149 α      lambda       -0.2944188E-03
   maximum displ.:     0.2157166 α      in ANC's #3, #1, #4, ...

........................................................................
.............................. CYCLE    7 ..............................
........................................................................

 iter      E             dE          RMSdq      gap      omega  full diag
   1    -32.0675129 -0.320675E+02  0.143E-01    3.59       0.0  T
   2    -32.0675145 -0.157148E-05  0.836E-02    3.59       1.0  T
   3    -32.0675144  0.100135E-06  0.763E-03    3.59       2.6  T
   4    -32.0675148 -0.440913E-06  0.226E-03    3.59       8.7  T
   5    -32.0675148 -0.578751E-08  0.105E-03    3.59      18.6  T
   6    -32.0675149 -0.756089E-08  0.532E-04    3.59      36.8  T
   7    -32.0675149 -0.256257E-08  0.135E-04    3.59     145.2  T
   8    -32.0675149 -0.646949E-10  0.527E-05    3.59     371.8  T
   9    -32.0675149 -0.124629E-10  0.193E-05    3.59    1018.2  T
  10    -32.0675149 -0.184031E-11  0.702E-06    3.59    2792.5  T
  11    -32.0675149 -0.930811E-12  0.287E-06    3.59    6825.4  T
     SCC iter.                  ...        0 min,  0.078 sec
     gradient                   ...        0 min,  0.002 sec
 * total energy  :   -31.5494814 Eh     change       -0.2394458E-03 Eh
   gradient norm :     0.0049065 Eh/α   predicted    -0.1707895E-03 ( -28.67%)
   displ. norm   :     0.3914282 α      lambda       -0.3006485E-03
   maximum displ.:     0.2306480 α      in ANC's #3, #1, #4, ...

........................................................................
.............................. CYCLE    8 ..............................
........................................................................

 iter      E             dE          RMSdq      gap      omega  full diag
   1    -32.0672132 -0.320672E+02  0.143E-01    3.59       0.0  T
   2    -32.0672145 -0.130379E-05  0.840E-02    3.59       1.0  T
   3    -32.0672142  0.311210E-06  0.765E-03    3.59       2.6  T
   4    -32.0672148 -0.622973E-06  0.221E-03    3.59       8.9  T
   5    -32.0672148 -0.125658E-07  0.123E-03    3.59      15.9  T
   6    -32.0672149 -0.209644E-07  0.451E-04    3.59      43.5  T
   7    -32.0672149 -0.812733E-09  0.150E-04    3.59     130.6  T
   8    -32.0672149 -0.302492E-09  0.490E-05    3.59     400.5  T
   9    -32.0672149 -0.871125E-11  0.223E-05    3.59     878.4  T
  10    -32.0672149 -0.440536E-11  0.654E-06    3.59    3000.0  T
  11    -32.0672149 -0.483169E-12  0.231E-06    3.59    8504.8  T
     SCC iter.                  ...        0 min,  0.073 sec
     gradient                   ...        0 min,  0.002 sec
 * total energy  :   -31.5497365 Eh     change       -0.2550488E-03 Eh
   gradient norm :     0.0059883 Eh/α   predicted    -0.1733566E-03 ( -32.03%)
   displ. norm   :     0.4046507 α      lambda       -0.3654617E-03
   maximum displ.:     0.2550890 α      in ANC's #3, #1, #2, ...

........................................................................
.............................. CYCLE    9 ..............................
........................................................................

 iter      E             dE          RMSdq      gap      omega  full diag
   1    -32.0679687 -0.320680E+02  0.145E-01    3.59       0.0  T
   2    -32.0679698 -0.114733E-05  0.858E-02    3.59       1.0  T
   3    -32.0679690  0.858765E-06  0.997E-03    3.59       2.0  T
   4    -32.0679702 -0.124071E-05  0.211E-03    3.59       9.3  T
   5    -32.0679702 -0.288354E-08  0.127E-03    3.59      15.4  T
   6    -32.0679702 -0.257335E-07  0.424E-04    3.59      46.2  T
   7    -32.0679702 -0.490793E-09  0.152E-04    3.59     129.3  T
   8    -32.0679702 -0.277517E-09  0.546E-05    3.59     359.2  T
   9    -32.0679702 -0.114255E-10  0.251E-05    3.59     781.5  T
  10    -32.0679702 -0.391509E-11  0.685E-06    3.59    2861.2  T
  11    -32.0679702 -0.490274E-12  0.235E-06    3.59    8352.7  T
     SCC iter.                  ...        0 min,  0.073 sec
     gradient                   ...        0 min,  0.002 sec
 * total energy  :   -31.5500512 Eh     change       -0.3146714E-03 Eh
   gradient norm :     0.0067002 Eh/α   predicted    -0.2126568E-03 ( -32.42%)
   displ. norm   :     0.4948533 α      lambda       -0.4483566E-03
   maximum displ.:     0.3240238 α      in ANC's #3, #1, #2, ...

........................................................................
.............................. CYCLE   10 ..............................
........................................................................

 iter      E             dE          RMSdq      gap      omega  full diag
   1    -32.0678077 -0.320678E+02  0.169E-01    3.59       0.0  T
   2    -32.0678090 -0.132395E-05  0.994E-02    3.59       1.0  T
   3    -32.0678078  0.124747E-05  0.101E-02    3.59       1.9  T
   4    -32.0678095 -0.174095E-05  0.233E-03    3.59       8.4  T
   5    -32.0678096 -0.301925E-07  0.132E-03    3.59      14.9  T
   6    -32.0678096 -0.208710E-07  0.526E-04    3.59      37.3  T
   7    -32.0678096 -0.137294E-08  0.173E-04    3.59     113.5  T
   8    -32.0678096 -0.238742E-09  0.663E-05    3.59     295.9  T
   9    -32.0678096 -0.420073E-10  0.251E-05    3.59     780.4  T
  10    -32.0678096 -0.195399E-11  0.713E-06    3.59    2752.1  T
  11    -32.0678096 -0.660805E-12  0.266E-06    3.59    7377.9  T
     SCC iter.                  ...        0 min,  0.073 sec
     gradient                   ...        0 min,  0.002 sec
 * total energy  :   -31.5504398 Eh     change       -0.3886031E-03 Eh
   gradient norm :     0.0078659 Eh/α   predicted    -0.2790782E-03 ( -28.18%)
   displ. norm   :     0.5717591 α      lambda       -0.5542104E-03
   maximum displ.:     0.3776836 α      in ANC's #3, #1, #2, ...

........................................................................
.............................. CYCLE   11 ..............................
........................................................................

 iter      E             dE          RMSdq      gap      omega  full diag
   1    -32.0689415 -0.320689E+02  0.188E-01    3.60       0.0  T
   2    -32.0689437 -0.212900E-05  0.110E-01    3.60       1.0  T
   3    -32.0689414  0.222267E-05  0.137E-02    3.60       1.4  T
   4    -32.0689444 -0.294043E-05  0.297E-03    3.60       6.6  T
   5    -32.0689444 -0.431709E-07  0.159E-03    3.60      12.3  T
   6    -32.0689445 -0.433017E-07  0.716E-04    3.60      27.4  T
   7    -32.0689445 -0.151564E-08  0.194E-04    3.60     101.1  T
   8    -32.0689445 -0.343043E-09  0.758E-05    3.60     258.6  T
   9    -32.0689445 -0.489848E-10  0.309E-05    3.60     634.8  T
  10    -32.0689445 -0.508038E-11  0.949E-06    3.60    2067.4  T
  11    -32.0689445 -0.959233E-12  0.358E-06    3.60    5484.4  T
     SCC iter.                  ...        0 min,  0.073 sec
     gradient                   ...        0 min,  0.002 sec
 * total energy  :   -31.5508892 Eh     change       -0.4494012E-03 Eh
   gradient norm :     0.0086871 Eh/α   predicted    -0.3676938E-03 ( -18.18%)
   displ. norm   :     0.6442105 α      lambda       -0.5442908E-03
   maximum displ.:     0.4231410 α      in ANC's #3, #1, #2, ...

........................................................................
.............................. CYCLE   12 ..............................
........................................................................

 iter      E             dE          RMSdq      gap      omega  full diag
   1    -32.0649504 -0.320650E+02  0.208E-01    3.60       0.0  T
   2    -32.0649540 -0.350974E-05  0.121E-01    3.60       1.0  T
   3    -32.0649530  0.921821E-06  0.117E-02    3.60       1.7  T
   4    -32.0649546 -0.154165E-05  0.378E-03    3.60       5.2  T
   5    -32.0649548 -0.203095E-06  0.186E-03    3.60      10.5  T
   6    -32.0649548 -0.442101E-07  0.828E-04    3.60      23.7  T
   7    -32.0649548 -0.202582E-08  0.276E-04    3.60      71.0  T
   8    -32.0649548 -0.125382E-09  0.103E-04    3.60     190.9  T
   9    -32.0649548 -0.210349E-09  0.348E-05    3.60     563.4  T
  10    -32.0649548 -0.471800E-11  0.846E-06    3.60    2317.5  T
  11    -32.0649548 -0.454747E-12  0.410E-06    3.60    4785.6  T
     SCC iter.                  ...        0 min,  0.074 sec
     gradient                   ...        0 min,  0.002 sec
 * total energy  :   -31.5512659 Eh     change       -0.3766832E-03 Eh
   gradient norm :     0.0111536 Eh/α   predicted    -0.3850968E-03 (   2.23%)
   displ. norm   :     0.4637562 α      lambda       -0.6993480E-03
   maximum displ.:     0.2762302 α      in ANC's #1, #3, #4, ...

........................................................................
.............................. CYCLE   13 ..............................
........................................................................

 iter      E             dE          RMSdq      gap      omega  full diag
   1    -32.0724055 -0.320724E+02  0.161E-01    3.63       0.0  T
   2    -32.0724097 -0.418184E-05  0.924E-02    3.63       1.0  T
   3    -32.0724083  0.144274E-05  0.150E-02    3.63       1.3  T
   4    -32.0724105 -0.218595E-05  0.362E-03    3.63       5.4  T
   5    -32.0724105 -0.678627E-07  0.171E-03    3.63      11.5  T
   6    -32.0724106 -0.444217E-07  0.667E-04    3.63      29.4  T
   7    -32.0724106 -0.136908E-08  0.219E-04    3.63      89.6  T
   8    -32.0724106 -0.522050E-09  0.761E-05    3.63     257.6  T
   9    -32.0724106 -0.303544E-10  0.261E-05    3.63     751.5  T
  10    -32.0724106 -0.207478E-11  0.662E-06    3.63    2963.3  T
  11    -32.0724106 -0.781597E-13  0.239E-06    3.63    8195.4  T
     SCC iter.                  ...        0 min,  0.073 sec
     gradient                   ...        0 min,  0.002 sec
 * total energy  :   -31.5516617 Eh     change       -0.3958483E-03 Eh
   gradient norm :     0.0088500 Eh/α   predicted    -0.4248791E-03 (   7.33%)
   displ. norm   :     0.5466916 α      lambda       -0.4370473E-03
   maximum displ.:     0.3497236 α      in ANC's #1, #3, #2, ...

........................................................................
.............................. CYCLE   14 ..............................
........................................................................

 iter      E             dE          RMSdq      gap      omega  full diag
   1    -32.0664608 -0.320665E+02  0.175E-01    3.63       0.0  T
   2    -32.0664644 -0.364878E-05  0.102E-01    3.63       1.0  T
   3    -32.0664637  0.780607E-06  0.117E-02    3.63       1.7  T
   4    -32.0664649 -0.126871E-05  0.380E-03    3.63       5.2  T
   5    -32.0664651 -0.182370E-06  0.188E-03    3.63      10.4  T
   6    -32.0664652 -0.491919E-07  0.735E-04    3.63      26.7  T
   7    -32.0664652 -0.125984E-08  0.186E-04    3.63     105.4  T
   8    -32.0664652 -0.206853E-09  0.656E-05    3.63     299.2  T
   9    -32.0664652 -0.109850E-10  0.311E-05    3.63     630.1  T
  10    -32.0664652 -0.643752E-11  0.989E-06    3.63    1983.3  T
  11    -32.0664652 -0.105160E-11  0.396E-06    3.63    4952.7  T
     SCC iter.                  ...        0 min,  0.074 sec
     gradient                   ...        0 min,  0.002 sec
 * total energy  :   -31.5519438 Eh     change       -0.2821283E-03 Eh
   gradient norm :     0.0082434 Eh/α   predicted    -0.2838343E-03 (   0.60%)
   displ. norm   :     0.2738132 α      lambda       -0.3990502E-03
   maximum displ.:     0.1689312 α      in ANC's #1, #6, #3, ...

........................................................................
.............................. CYCLE   15 ..............................
........................................................................

 iter      E             dE          RMSdq      gap      omega  full diag
   1    -32.0694838 -0.320695E+02  0.915E-02    3.66       0.0  T
   2    -32.0694857 -0.184070E-05  0.524E-02    3.66       1.0  T
   3    -32.0694848  0.860046E-06  0.110E-02    3.65       1.8  T
   4    -32.0694860 -0.122896E-05  0.231E-03    3.65       8.5  T
   5    -32.0694861 -0.442836E-07  0.123E-03    3.65      15.9  T
   6    -32.0694861 -0.189047E-07  0.593E-04    3.65      33.1  T
   7    -32.0694861 -0.108989E-08  0.166E-04    3.65     117.8  T
   8    -32.0694861 -0.537014E-09  0.320E-05    3.65     613.7  T
   9    -32.0694861 -0.211031E-11  0.166E-05    3.65    1183.1  T
  10    -32.0694861 -0.117950E-11  0.681E-06    3.65    2879.9  T
  11    -32.0694861 -0.376588E-12  0.268E-06    3.65    7310.9  T
     SCC iter.                  ...        0 min,  0.074 sec
     gradient                   ...        0 min,  0.002 sec
 * total energy  :   -31.5521784 Eh     change       -0.2345216E-03 Eh
   gradient norm :     0.0063054 Eh/α   predicted    -0.2144844E-03 (  -8.54%)
   displ. norm   :     0.3493922 α      lambda       -0.2234126E-03
   maximum displ.:     0.2361949 α      in ANC's #1, #3, #2, ...

........................................................................
.............................. CYCLE   16 ..............................
........................................................................

 iter      E             dE          RMSdq      gap      omega  full diag
   1    -32.0694740 -0.320695E+02  0.113E-01    3.66       0.0  T
   2    -32.0694754 -0.139578E-05  0.662E-02    3.66       1.0  T
   3    -32.0694749  0.454302E-06  0.829E-03    3.66       2.4  T
   4    -32.0694757 -0.726008E-06  0.224E-03    3.66       8.8  T
   5    -32.0694757 -0.451834E-07  0.107E-03    3.66      18.3  T
   6    -32.0694757 -0.111493E-07  0.503E-04    3.66      39.0  T
   7    -32.0694757 -0.122369E-08  0.154E-04    3.66     127.1  T
   8    -32.0694757 -0.173351E-09  0.575E-05    3.66     341.3  T
   9    -32.0694757 -0.319034E-11  0.222E-05    3.66     884.2  T
  10    -32.0694757 -0.290612E-11  0.624E-06    3.66    3142.6  T
  11    -32.0694757 -0.426326E-13  0.316E-06    3.66    6210.5  T
     SCC iter.                  ...        0 min,  0.073 sec
     gradient                   ...        0 min,  0.002 sec
 * total energy  :   -31.5523307 Eh     change       -0.1523377E-03 Eh
   gradient norm :     0.0049529 Eh/α   predicted    -0.1253432E-03 ( -17.72%)
   displ. norm   :     0.2698446 α      lambda       -0.1449857E-03
   maximum displ.:     0.1852300 α      in ANC's #1, #2, #3, ...

........................................................................
.............................. CYCLE   17 ..............................
........................................................................

 iter      E             dE          RMSdq      gap      omega  full diag
   1    -32.0713383 -0.320713E+02  0.826E-02    3.66       0.0  T
   2    -32.0713387 -0.443630E-06  0.493E-02    3.66       1.0  T
   3    -32.0713382  0.521338E-06  0.596E-03    3.66       3.3  T
   4    -32.0713389 -0.699678E-06  0.141E-03    3.66      14.0  T
   5    -32.0713389 -0.121220E-07  0.678E-04    3.66      28.9  T
   6    -32.0713389 -0.371999E-08  0.331E-04    3.66      59.2  T
   7    -32.0713389 -0.359975E-09  0.108E-04    3.66     181.8  T
   8    -32.0713389 -0.130989E-09  0.415E-05    3.66     472.8  T
   9    -32.0713389 -0.121361E-10  0.160E-05    3.66    1222.6  T
  10    -32.0713389 -0.228084E-11  0.574E-06    3.66    3419.0  T
  11    -32.0713389 -0.255795E-12  0.254E-06    3.66    7720.0  T
     SCC iter.                  ...        0 min,  0.073 sec
     gradient                   ...        0 min,  0.002 sec
 * total energy  :   -31.5524285 Eh     change       -0.9781885E-04 Eh
   gradient norm :     0.0030129 Eh/α   predicted    -0.7777418E-04 ( -20.49%)
   displ. norm   :     0.3034770 α      lambda       -0.8776736E-04
   maximum displ.:     0.2065539 α      in ANC's #1, #2, #3, ...

........................................................................
.............................. CYCLE   18 ..............................
........................................................................

 iter      E             dE          RMSdq      gap      omega  full diag
   1    -32.0707587 -0.320708E+02  0.910E-02    3.67       0.0  T
   2    -32.0707595 -0.771501E-06  0.540E-02    3.67       1.0  T
   3    -32.0707587  0.769925E-06  0.788E-03    3.67       2.5  T
   4    -32.0707597 -0.998240E-06  0.166E-03    3.67      11.8  T
   5    -32.0707597 -0.163974E-07  0.105E-03    3.67      18.7  T
   6    -32.0707597 -0.795858E-08  0.390E-04    3.67      50.2  T
   7    -32.0707597 -0.738851E-09  0.118E-04    3.67     165.8  T
   8    -32.0707597 -0.786144E-10  0.587E-05    3.67     334.2  T
   9    -32.0707597 -0.261622E-10  0.222E-05    3.67     883.9  T
  10    -32.0707597 -0.181899E-11  0.733E-06    3.67    2674.7  T
  11    -32.0707597 -0.532907E-12  0.268E-06    3.67    7319.5  T
     SCC iter.                  ...        0 min,  0.074 sec
     gradient                   ...        0 min,  0.002 sec
 * total energy  :   -31.5524794 Eh     change       -0.5091510E-04 Eh
   gradient norm :     0.0035469 Eh/α   predicted    -0.4792609E-04 (  -5.87%)
   displ. norm   :     0.1332078 α      lambda       -0.7375584E-04
   maximum displ.:     0.0980276 α      in ANC's #1, #2, #44, ...

........................................................................
.............................. CYCLE   19 ..............................
........................................................................

 iter      E             dE          RMSdq      gap      omega  full diag
   1    -32.0746824 -0.320747E+02  0.433E-02    3.68       0.0  T
   2    -32.0746830 -0.609427E-06  0.265E-02    3.68       1.0  T
   3    -32.0746827  0.281134E-06  0.648E-03    3.68       3.0  T
   4    -32.0746831 -0.401693E-06  0.121E-03    3.68      16.2  T
   5    -32.0746831 -0.230995E-08  0.723E-04    3.68      27.1  T
   6    -32.0746831 -0.917056E-08  0.326E-04    3.68      60.2  T
   7    -32.0746831 -0.306208E-09  0.114E-04    3.68     172.5  T
   8    -32.0746831 -0.126690E-10  0.402E-05    3.68     487.6  T
   9    -32.0746831 -0.273062E-10  0.144E-05    3.68    1365.4  T
  10    -32.0746831 -0.120792E-11  0.462E-06    3.68    4243.9  T
  11    -32.0746831 -0.163425E-12  0.230E-06    3.68    8527.1  T
     SCC iter.                  ...        0 min,  0.073 sec
     gradient                   ...        0 min,  0.002 sec
 * total energy  :   -31.5525030 Eh     change       -0.2354732E-04 Eh
   gradient norm :     0.0046822 Eh/α   predicted    -0.3753521E-04 (  59.40%)
   displ. norm   :     0.1974998 α      lambda       -0.6519242E-04
   maximum displ.:     0.1549166 α      in ANC's #1, #3, #2, ...

........................................................................
.............................. CYCLE   20 ..............................
........................................................................

 iter      E             dE          RMSdq      gap      omega  full diag
   1    -32.0723014 -0.320723E+02  0.719E-02    3.67       0.0  T
   2    -32.0723018 -0.369613E-06  0.418E-02    3.67       1.0  T
   3    -32.0723016  0.133430E-06  0.476E-03    3.67       4.1  T
   4    -32.0723019 -0.245608E-06  0.129E-03    3.67      15.2  T
   5    -32.0723019  0.170041E-08  0.709E-04    3.67      27.7  T
   6    -32.0723019 -0.586645E-08  0.308E-04    3.67      63.6  T
   7    -32.0723019 -0.365787E-09  0.786E-05    3.67     249.6  T
   8    -32.0723019 -0.632099E-10  0.252E-05    3.67     779.0  T
   9    -32.0723019 -0.753886E-11  0.937E-06    3.67    2093.2  T
  10    -32.0723019 -0.241585E-12  0.390E-06    3.67    5027.4  T
     SCC iter.                  ...        0 min,  0.073 sec
     gradient                   ...        0 min,  0.002 sec
 * total energy  :   -31.5525364 Eh     change       -0.3346438E-04 Eh
   gradient norm :     0.0040828 Eh/α   predicted    -0.3386987E-04 (   1.21%)
   displ. norm   :     0.0945086 α      lambda       -0.5708757E-04
   maximum displ.:     0.0776289 α      in ANC's #1, #5, #2, ...
 * RMSD in coord.:     1.1226557 α      energy gain  -0.8132430E-02 Eh

generating ANC from model Hessian ...
Using Lindh-Hessian (1995)
 Shifting diagonal of input Hessian by   9.313849218691293E-003
 Lowest  eigenvalues of input Hessian
    0.000000    0.000000    0.000000    0.000000    0.000000    0.000000
    0.010000    0.010683    0.010913    0.011341    0.011950    0.012312
    0.015803    0.017063    0.018356    0.018520    0.019549    0.024382
 Highest eigenvalues
    1.363260    1.551234    1.574277    1.878735    1.983925    2.003972
 

........................................................................
.............................. CYCLE   21 ..............................
........................................................................

 iter      E             dE          RMSdq      gap      omega  full diag
   1    -32.0719503 -0.320720E+02  0.409E-02    3.68       0.0  T
   2    -32.0719506 -0.259250E-06  0.238E-02    3.67       1.0  T
   3    -32.0719505  0.738328E-07  0.281E-03    3.67       7.0  T
   4    -32.0719506 -0.900318E-07  0.112E-03    3.67      17.6  T
   5    -32.0719506 -0.337584E-07  0.350E-04    3.67      56.0  T
   6    -32.0719506 -0.870159E-09  0.170E-04    3.67     115.3  T
   7    -32.0719506 -0.673879E-10  0.670E-05    3.67     292.6  T
   8    -32.0719506 -0.207478E-10  0.209E-05    3.67     939.5  T
   9    -32.0719506 -0.599698E-11  0.115E-05    3.67    1711.9  T
  10    -32.0719506 -0.129319E-11  0.240E-06    3.67    8164.6  T
  11    -32.0719506 -0.639488E-13  0.874E-07    3.67   22430.5  T
     SCC iter.                  ...        0 min,  0.074 sec
     gradient                   ...        0 min,  0.002 sec
 * total energy  :   -31.5525725 Eh     change       -0.3604696E-04 Eh
   gradient norm :     0.0033601 Eh/α   predicted     0.0000000E+00 (-100.00%)
   displ. norm   :     0.0460286 α      lambda       -0.4340782E-04
   maximum displ.:     0.0225427 α      in ANC's #1, #4, #6, ...

........................................................................
.............................. CYCLE   22 ..............................
........................................................................

 iter      E             dE          RMSdq      gap      omega  full diag
   1    -32.0728698 -0.320729E+02  0.220E-02    3.68       0.0  T
   2    -32.0728699 -0.103757E-06  0.127E-02    3.68       1.5  T
   3    -32.0728699  0.399644E-07  0.235E-03    3.68       8.4  T
   4    -32.0728699 -0.542791E-07  0.711E-04    3.68      27.6  T
   5    -32.0728699 -0.602474E-08  0.299E-04    3.68      65.7  T
   6    -32.0728699 -0.162805E-08  0.984E-05    3.68     199.3  T
   7    -32.0728699 -0.246203E-10  0.461E-05    3.68     425.6  T
   8    -32.0728699 -0.118590E-10  0.130E-05    3.68    1505.4  T
   9    -32.0728699 -0.228795E-11  0.445E-06    3.68    4411.7  T
  10    -32.0728699 -0.170530E-12  0.168E-06    3.68   11645.7  T
     SCC iter.                  ...        0 min,  0.076 sec
     gradient                   ...        0 min,  0.002 sec
 * total energy  :   -31.5526057 Eh     change       -0.3322756E-04 Eh
   gradient norm :     0.0011352 Eh/α   predicted    -0.2177648E-04 ( -34.46%)
   displ. norm   :     0.1468544 α      lambda       -0.4752397E-04
   maximum displ.:     0.0754436 α      in ANC's #1, #4, #6, ...

........................................................................
.............................. CYCLE   23 ..............................
........................................................................

 iter      E             dE          RMSdq      gap      omega  full diag
   1    -32.0737059 -0.320737E+02  0.604E-02    3.68       0.0  T
   2    -32.0737063 -0.374902E-06  0.349E-02    3.68       1.0  T
   3    -32.0737061  0.218636E-06  0.534E-03    3.68       3.7  T
   4    -32.0737064 -0.285394E-06  0.128E-03    3.68      15.3  T
   5    -32.0737064 -0.258735E-07  0.620E-04    3.68      31.7  T
   6    -32.0737064 -0.492679E-08  0.223E-04    3.68      88.1  T
   7    -32.0737064 -0.100826E-09  0.604E-05    3.68     324.8  T
   8    -32.0737064 -0.397620E-10  0.179E-05    3.68    1097.1  T
   9    -32.0737064 -0.300560E-11  0.839E-06    3.68    2337.8  T
  10    -32.0737064 -0.248690E-12  0.267E-06    3.68    7334.2  T
     SCC iter.                  ...        0 min,  0.073 sec
     gradient                   ...        0 min,  0.002 sec
 * total energy  :   -31.5526414 Eh     change       -0.3564081E-04 Eh
   gradient norm :     0.0027515 Eh/α   predicted    -0.2399085E-04 ( -32.69%)
   displ. norm   :     0.0377543 α      lambda       -0.1473843E-04
   maximum displ.:     0.0242298 α      in ANC's #1, #4, #5, ...

........................................................................
.............................. CYCLE   24 ..............................
........................................................................

 iter      E             dE          RMSdq      gap      omega  full diag
   1    -32.0733915 -0.320734E+02  0.168E-02    3.68       0.0  T
   2    -32.0733916 -0.456034E-07  0.973E-03    3.68       2.0  T
   3    -32.0733916  0.223597E-07  0.163E-03    3.68      12.0  T
   4    -32.0733916 -0.321001E-07  0.485E-04    3.68      40.4  T
   5    -32.0733916 -0.125389E-08  0.170E-04    3.68     115.1  T
   6    -32.0733916 -0.665395E-09  0.522E-05    3.68     375.5  T
   7    -32.0733916 -0.176215E-11  0.220E-05    3.68     890.3  T
   8    -32.0733916 -0.265743E-11  0.820E-06    3.68    2391.7  T
   9    -32.0733916 -0.838440E-12  0.265E-06    3.68    7389.5  T
     SCC iter.                  ...        0 min,  0.082 sec
     gradient                   ...        0 min,  0.002 sec
 * total energy  :   -31.5526531 Eh     change       -0.1172912E-04 Eh
   gradient norm :     0.0017937 Eh/α   predicted    -0.7380638E-05 ( -37.07%)
   displ. norm   :     0.0857630 α      lambda       -0.1706568E-04
   maximum displ.:     0.0609028 α      in ANC's #1, #4, #5, ...

........................................................................
.............................. CYCLE   25 ..............................
........................................................................

 iter      E             dE          RMSdq      gap      omega  full diag
   1    -32.0725135 -0.320725E+02  0.377E-02    3.67       0.0  T
   2    -32.0725136 -0.176747E-06  0.222E-02    3.67       1.0  T
   3    -32.0725134  0.202534E-06  0.395E-03    3.67       5.0  T
   4    -32.0725137 -0.256446E-06  0.866E-04    3.67      22.6  T
   5    -32.0725137 -0.468361E-08  0.379E-04    3.67      51.7  T
   6    -32.0725137 -0.289058E-08  0.131E-04    3.67     149.3  T
   7    -32.0725137 -0.163709E-10  0.550E-05    3.67     356.4  T
   8    -32.0725137 -0.151203E-10  0.186E-05    3.67    1053.4  T
   9    -32.0725137 -0.485301E-11  0.579E-06    3.67    3386.0  T
  10    -32.0725137 -0.220268E-12  0.266E-06    3.67    7372.0  T
     SCC iter.                  ...        0 min,  0.081 sec
     gradient                   ...        0 min,  0.003 sec
 * total energy  :   -31.5526645 Eh     change       -0.1145874E-04 Eh
   gradient norm :     0.0012792 Eh/α   predicted    -0.8563437E-05 ( -25.27%)
   displ. norm   :     0.0223345 α      lambda       -0.3923215E-05
   maximum displ.:     0.0187586 α      in ANC's #1, #4, #7, ...

........................................................................
.............................. CYCLE   26 ..............................
........................................................................

 iter      E             dE          RMSdq      gap      omega  full diag
   1    -32.0727943 -0.320728E+02  0.101E-02    3.67       0.0  T
   2    -32.0727943 -0.293658E-07  0.573E-03    3.67       3.4  T
   3    -32.0727943 -0.836188E-09  0.900E-04    3.67      21.8  T
   4    -32.0727943 -0.183120E-08  0.380E-04    3.67      51.6  T
   5    -32.0727943 -0.161439E-08  0.936E-05    3.67     209.4  T
   6    -32.0727943 -0.136275E-09  0.482E-05    3.67     407.1  T
   7    -32.0727943 -0.144667E-10  0.176E-05    3.67    1115.5  T
   8    -32.0727943 -0.277112E-12  0.521E-06    3.67    3762.2  T
   9    -32.0727943 -0.504485E-12  0.172E-06    3.67   11415.9  T
     SCC iter.                  ...        0 min,  0.074 sec
     gradient                   ...        0 min,  0.003 sec
 * total energy  :   -31.5526693 Eh     change       -0.4799485E-05 Eh
   gradient norm :     0.0007204 Eh/α   predicted    -0.1977843E-05 ( -58.79%)
   displ. norm   :     0.0441062 α      lambda       -0.6189592E-05
   maximum displ.:     0.0340665 α      in ANC's #1, #9, #3, ...

........................................................................
.............................. CYCLE   27 ..............................
........................................................................

 iter      E             dE          RMSdq      gap      omega  full diag
   1    -32.0732720 -0.320733E+02  0.152E-02    3.67       0.0  T
   2    -32.0732720 -0.176380E-07  0.883E-03    3.67       2.2  T
   3    -32.0732720  0.577270E-08  0.799E-04    3.67      24.5  T
   4    -32.0732720 -0.966944E-08  0.314E-04    3.67      62.4  T
   5    -32.0732720 -0.130897E-08  0.107E-04    3.67     184.1  T
   6    -32.0732720 -0.473221E-10  0.605E-05    3.67     324.0  T
   7    -32.0732720 -0.259988E-10  0.187E-05    3.67    1048.8  T
   8    -32.0732720 -0.313349E-11  0.684E-06    3.67    2865.2  T
   9    -32.0732720 -0.142109E-12  0.225E-06    3.67    8708.3  T
     SCC iter.                  ...        0 min,  0.073 sec
     gradient                   ...        0 min,  0.002 sec
 * total energy  :   -31.5526761 Eh     change       -0.6780505E-05 Eh
   gradient norm :     0.0005368 Eh/α   predicted    -0.3101233E-05 ( -54.26%)
   displ. norm   :     0.0488939 α      lambda       -0.4418393E-05
   maximum displ.:     0.0398607 α      in ANC's #1, #3, #9, ...

........................................................................
.............................. CYCLE   28 ..............................
........................................................................

 iter      E             dE          RMSdq      gap      omega  full diag
   1    -32.0733550 -0.320734E+02  0.174E-02    3.67       0.0  T
   2    -32.0733550 -0.170325E-07  0.101E-02    3.67       1.9  T
   3    -32.0733550 -0.149470E-08  0.606E-04    3.67      32.3  T
   4    -32.0733550 -0.244685E-08  0.270E-04    3.67      72.7  T
   5    -32.0733550 -0.808491E-09  0.111E-04    3.67     177.4  T
   6    -32.0733550 -0.116131E-09  0.501E-05    3.67     391.1  T
   7    -32.0733550 -0.752465E-11  0.143E-05    3.67    1375.0  T
   8    -32.0733550 -0.625278E-12  0.548E-06    3.67    3582.0  T
   9    -32.0733550 -0.234479E-12  0.237E-06    3.67    8264.9  T
     SCC iter.                  ...        0 min,  0.079 sec
     gradient                   ...        0 min,  0.002 sec
 * total energy  :   -31.5526821 Eh     change       -0.5968571E-05 Eh
   gradient norm :     0.0007871 Eh/α   predicted    -0.2216050E-05 ( -62.87%)
   displ. norm   :     0.0491521 α      lambda       -0.4723135E-05
   maximum displ.:     0.0400860 α      in ANC's #1, #3, #9, ...

........................................................................
.............................. CYCLE   29 ..............................
........................................................................

 iter      E             dE          RMSdq      gap      omega  full diag
   1    -32.0732508 -0.320733E+02  0.177E-02    3.67       0.0  T
   2    -32.0732509 -0.172445E-07  0.103E-02    3.67       1.9  T
   3    -32.0732509  0.596722E-08  0.798E-04    3.67      24.6  T
   4    -32.0732509 -0.912392E-08  0.350E-04    3.67      56.1  T
   5    -32.0732509 -0.227478E-08  0.960E-05    3.67     204.3  T
   6    -32.0732509 -0.286491E-10  0.478E-05    3.67     410.7  T
   7    -32.0732509 -0.102247E-10  0.154E-05    3.67    1269.7  T
   8    -32.0732509 -0.289191E-11  0.610E-06    3.67    3214.1  T
   9    -32.0732509 -0.135003E-12  0.256E-06    3.67    7651.0  T
     SCC iter.                  ...        0 min,  0.074 sec
     gradient                   ...        0 min,  0.002 sec
 * total energy  :   -31.5526888 Eh     change       -0.6711196E-05 Eh
   gradient norm :     0.0005987 Eh/α   predicted    -0.2364445E-05 ( -64.77%)
   displ. norm   :     0.0540914 α      lambda       -0.5444009E-05
   maximum displ.:     0.0439204 α      in ANC's #1, #3, #5, ...

........................................................................
.............................. CYCLE   30 ..............................
........................................................................

 iter      E             dE          RMSdq      gap      omega  full diag
   1    -32.0730927 -0.320731E+02  0.199E-02    3.67       0.0  T
   2    -32.0730927 -0.236254E-07  0.117E-02    3.67       1.7  T
   3    -32.0730927  0.160922E-07  0.114E-03    3.67      17.2  T
   4    -32.0730927 -0.223793E-07  0.383E-04    3.67      51.1  T
   5    -32.0730927 -0.205424E-08  0.126E-04    3.67     156.2  T
   6    -32.0730927 -0.104890E-09  0.649E-05    3.67     302.2  T
   7    -32.0730927 -0.175504E-10  0.201E-05    3.67     974.7  T
   8    -32.0730927 -0.549960E-11  0.793E-06    3.67    2472.6  T
   9    -32.0730927 -0.397904E-12  0.338E-06    3.67    5803.6  T
     SCC iter.                  ...        0 min,  0.079 sec
     gradient                   ...        0 min,  0.002 sec
 * total energy  :   -31.5526964 Eh     change       -0.7554483E-05 Eh
   gradient norm :     0.0002916 Eh/α   predicted    -0.2728670E-05 ( -63.88%)
   displ. norm   :     0.0582688 α      lambda       -0.5506179E-05
   maximum displ.:     0.0474505 α      in ANC's #1, #3, #6, ...

........................................................................
.............................. CYCLE   31 ..............................
........................................................................

 iter      E             dE          RMSdq      gap      omega  full diag
   1    -32.0729517 -0.320730E+02  0.215E-02    3.67       0.0  T
   2    -32.0729517 -0.268638E-07  0.126E-02    3.67       1.6  T
   3    -32.0729517  0.170857E-07  0.121E-03    3.67      16.2  T
   4    -32.0729517 -0.237605E-07  0.391E-04    3.67      50.2  T
   5    -32.0729517 -0.228228E-08  0.135E-04    3.67     145.7  T
   6    -32.0729517 -0.168114E-09  0.652E-05    3.67     300.6  T
   7    -32.0729517 -0.706990E-11  0.213E-05    3.67     922.3  T
   8    -32.0729517 -0.763833E-11  0.820E-06    3.67    2392.6  T
   9    -32.0729517 -0.412115E-12  0.370E-06    3.67    5294.9  T
     SCC iter.                  ...        0 min,  0.073 sec
     gradient                   ...        0 min,  0.002 sec
 * total energy  :   -31.5527039 Eh     change       -0.7589571E-05 Eh
   gradient norm :     0.0003311 Eh/α   predicted    -0.2760118E-05 ( -63.63%)
   displ. norm   :     0.0542969 α      lambda       -0.4810905E-05
   maximum displ.:     0.0452177 α      in ANC's #1, #3, #6, ...

........................................................................
.............................. CYCLE   32 ..............................
........................................................................

 iter      E             dE          RMSdq      gap      omega  full diag
   1    -32.0728979 -0.320729E+02  0.201E-02    3.67       0.0  T
   2    -32.0728979 -0.229378E-07  0.118E-02    3.67       1.7  T
   3    -32.0728979  0.141715E-07  0.124E-03    3.67      15.8  T
   4    -32.0728979 -0.216744E-07  0.318E-04    3.67      61.6  T
   5    -32.0728979 -0.707587E-09  0.158E-04    3.67     123.8  T
   6    -32.0728979 -0.321712E-09  0.669E-05    3.67     293.0  T
   7    -32.0728979 -0.653699E-11  0.201E-05    3.67     977.1  T
   8    -32.0728979 -0.627409E-11  0.808E-06    3.67    2427.1  T
   9    -32.0728979 -0.362377E-12  0.381E-06    3.67    5148.9  T
     SCC iter.                  ...        0 min,  0.074 sec
     gradient                   ...        0 min,  0.002 sec
 * total energy  :   -31.5527107 Eh     change       -0.6800433E-05 Eh
   gradient norm :     0.0004538 Eh/α   predicted    -0.2413540E-05 ( -64.51%)
   displ. norm   :     0.0450268 α      lambda       -0.4020548E-05
   maximum displ.:     0.0391826 α      in ANC's #1, #3, #6, ...

........................................................................
.............................. CYCLE   33 ..............................
........................................................................

 iter      E             dE          RMSdq      gap      omega  full diag
   1    -32.0729240 -0.320729E+02  0.170E-02    3.67       0.0  T
   2    -32.0729240 -0.152393E-07  0.998E-03    3.67       2.0  T
   3    -32.0729240  0.668139E-08  0.965E-04    3.67      20.3  T
   4    -32.0729241 -0.114032E-07  0.242E-04    3.67      81.2  T
   5    -32.0729241 -0.457234E-09  0.122E-04    3.67     161.4  T
   6    -32.0729241 -0.210676E-09  0.499E-05    3.67     393.0  T
   7    -32.0729241 -0.144951E-11  0.155E-05    3.67    1267.1  T
   8    -32.0729241 -0.361666E-11  0.621E-06    3.67    3157.8  T
   9    -32.0729241 -0.206057E-12  0.265E-06    3.67    7393.6  T
     SCC iter.                  ...        0 min,  0.073 sec
     gradient                   ...        0 min,  0.002 sec
 * total energy  :   -31.5527166 Eh     change       -0.5898980E-05 Eh
   gradient norm :     0.0004636 Eh/α   predicted    -0.2015939E-05 ( -65.83%)
   displ. norm   :     0.0381888 α      lambda       -0.3711702E-05
   maximum displ.:     0.0347306 α      in ANC's #1, #3, #6, ...

........................................................................
.............................. CYCLE   34 ..............................
........................................................................

 iter      E             dE          RMSdq      gap      omega  full diag
   1    -32.0729862 -0.320730E+02  0.146E-02    3.67       0.0  T
   2    -32.0729862 -0.122474E-07  0.858E-03    3.67       2.3  T
   3    -32.0729862  0.362643E-08  0.841E-04    3.67      23.3  T
   4    -32.0729862 -0.726088E-08  0.203E-04    3.67      96.6  T
   5    -32.0729862 -0.219032E-09  0.101E-04    3.67     194.3  T
   6    -32.0729862 -0.156788E-09  0.444E-05    3.67     441.5  T
   7    -32.0729862 -0.429878E-11  0.106E-05    3.67    1856.4  T
   8    -32.0729862 -0.923706E-12  0.507E-06    3.67    3869.4  T
   9    -32.0729862 -0.781597E-13  0.218E-06    3.67    9013.7  T
     SCC iter.                  ...        0 min,  0.073 sec
     gradient                   ...        0 min,  0.002 sec
 * total energy  :   -31.5527221 Eh     change       -0.5505488E-05 Eh
   gradient norm :     0.0003914 Eh/α   predicted    -0.1860605E-05 ( -66.20%)
   displ. norm   :     0.0363176 α      lambda       -0.3849188E-05
   maximum displ.:     0.0339643 α      in ANC's #1, #3, #9, ...

........................................................................
.............................. CYCLE   35 ..............................
........................................................................

 iter      E             dE          RMSdq      gap      omega  full diag
   1    -32.0730699 -0.320731E+02  0.140E-02    3.67       0.0  T
   2    -32.0730699 -0.996772E-08  0.822E-03    3.67       2.4  T
   3    -32.0730699  0.259755E-08  0.780E-04    3.67      25.1  T
   4    -32.0730699 -0.588788E-08  0.174E-04    3.67     112.6  T
   5    -32.0730699 -0.909068E-10  0.953E-05    3.67     205.8  T
   6    -32.0730699 -0.135870E-09  0.386E-05    3.67     507.8  T
   7    -32.0730699 -0.299138E-11  0.113E-05    3.67    1741.1  T
   8    -32.0730699 -0.105871E-11  0.491E-06    3.67    3994.2  T
   9    -32.0730699 -0.135003E-12  0.193E-06    3.67   10172.1  T
     SCC iter.                  ...        0 min,  0.073 sec
     gradient                   ...        0 min,  0.002 sec
 * total energy  :   -31.5527278 Eh     change       -0.5662074E-05 Eh
   gradient norm :     0.0002758 Eh/α   predicted    -0.1930332E-05 ( -65.91%)
   displ. norm   :     0.0385373 α      lambda       -0.4189692E-05
   maximum displ.:     0.0362460 α      in ANC's #1, #3, #9, ...

........................................................................
.............................. CYCLE   36 ..............................
........................................................................

 iter      E             dE          RMSdq      gap      omega  full diag
   1    -32.0731332 -0.320731E+02  0.146E-02    3.67       0.0  T
   2    -32.0731333 -0.130002E-07  0.857E-03    3.67       2.3  T
   3    -32.0731333  0.293966E-08  0.775E-04    3.67      25.3  T
   4    -32.0731333 -0.635327E-08  0.215E-04    3.67      91.3  T
   5    -32.0731333 -0.406843E-09  0.922E-05    3.67     212.7  T
   6    -32.0731333 -0.123613E-09  0.448E-05    3.67     438.2  T
   7    -32.0731333 -0.802203E-11  0.104E-05    3.67    1882.5  T
   8    -32.0731333 -0.596856E-12  0.464E-06    3.67    4226.9  T
   9    -32.0731333 -0.106581E-12  0.240E-06    3.67    8176.9  T
     SCC iter.                  ...        0 min,  0.073 sec
     gradient                   ...        0 min,  0.002 sec
 * total energy  :   -31.5527340 Eh     change       -0.6164501E-05 Eh
   gradient norm :     0.0002141 Eh/α   predicted    -0.2097028E-05 ( -65.98%)
   displ. norm   :     0.0404592 α      lambda       -0.4376034E-05
   maximum displ.:     0.0381009 α      in ANC's #1, #3, #2, ...

........................................................................
.............................. CYCLE   37 ..............................
........................................................................

 iter      E             dE          RMSdq      gap      omega  full diag
   1    -32.0731865 -0.320732E+02  0.152E-02    3.67       0.0  T
   2    -32.0731865 -0.117869E-07  0.892E-03    3.67       2.2  T
   3    -32.0731865  0.296846E-08  0.800E-04    3.67      24.5  T
   4    -32.0731865 -0.680190E-08  0.196E-04    3.67      99.8  T
   5    -32.0731865 -0.170573E-09  0.997E-05    3.67     196.8  T
   6    -32.0731865 -0.144716E-09  0.419E-05    3.67     468.3  T
   7    -32.0731865 -0.523670E-11  0.117E-05    3.67    1673.9  T
   8    -32.0731865 -0.497380E-12  0.522E-06    3.67    3757.8  T
   9    -32.0731865 -0.177636E-12  0.220E-06    3.67    8916.7  T
     SCC iter.                  ...        0 min,  0.073 sec
     gradient                   ...        0 min,  0.002 sec
 * total energy  :   -31.5527404 Eh     change       -0.6419558E-05 Eh
   gradient norm :     0.0002027 Eh/α   predicted    -0.2192173E-05 ( -65.85%)
   displ. norm   :     0.0407894 α      lambda       -0.4292244E-05
   maximum displ.:     0.0384121 α      in ANC's #1, #3, #2, ...

........................................................................
.............................. CYCLE   38 ..............................
........................................................................

 iter      E             dE          RMSdq      gap      omega  full diag
   1    -32.0732082 -0.320732E+02  0.151E-02    3.68       0.0  T
   2    -32.0732083 -0.118035E-07  0.886E-03    3.67       2.2  T
   3    -32.0732083  0.260557E-08  0.677E-04    3.67      28.9  T
   4    -32.0732083 -0.598999E-08  0.220E-04    3.67      89.2  T
   5    -32.0732083 -0.559538E-09  0.869E-05    3.67     225.6  T
   6    -32.0732083 -0.786287E-10  0.422E-05    3.67     465.0  T
   7    -32.0732083 -0.596856E-11  0.114E-05    3.67    1720.2  T
   8    -32.0732083 -0.476064E-12  0.468E-06    3.67    4193.7  T
   9    -32.0732083 -0.426326E-13  0.219E-06    3.67    8948.1  T
     SCC iter.                  ...        0 min,  0.073 sec
     gradient                   ...        0 min,  0.002 sec
 * total energy  :   -31.5527467 Eh     change       -0.6300921E-05 Eh
   gradient norm :     0.0002256 Eh/α   predicted    -0.2149348E-05 ( -65.89%)
   displ. norm   :     0.0389277 α      lambda       -0.4000535E-05
   maximum displ.:     0.0369169 α      in ANC's #1, #3, #2, ...

........................................................................
.............................. CYCLE   39 ..............................
........................................................................

 iter      E             dE          RMSdq      gap      omega  full diag
   1    -32.0732120 -0.320732E+02  0.145E-02    3.68       0.0  T
   2    -32.0732120 -0.111175E-07  0.851E-03    3.68       2.3  T
   3    -32.0732120  0.391699E-08  0.737E-04    3.67      26.6  T
   4    -32.0732120 -0.733790E-08  0.209E-04    3.67      93.7  T
   5    -32.0732120 -0.407468E-09  0.909E-05    3.67     215.7  T
   6    -32.0732120 -0.112827E-09  0.412E-05    3.67     475.9  T
   7    -32.0732120 -0.422062E-11  0.112E-05    3.67    1755.1  T
   8    -32.0732120 -0.440536E-12  0.478E-06    3.67    4100.1  T
   9    -32.0732120 -0.284217E-13  0.198E-06    3.67    9928.7  T
     SCC iter.                  ...        0 min,  0.073 sec
     gradient                   ...        0 min,  0.002 sec
 * total energy  :   -31.5527526 Eh     change       -0.5907866E-05 Eh
   gradient norm :     0.0002270 Eh/α   predicted    -0.2003164E-05 ( -66.09%)
   displ. norm   :     0.0355978 α      lambda       -0.3606532E-05
   maximum displ.:     0.0339768 α      in ANC's #1, #3, #2, ...

........................................................................
.............................. CYCLE   40 ..............................
........................................................................

 iter      E             dE          RMSdq      gap      omega  full diag
   1    -32.0732077 -0.320732E+02  0.133E-02    3.68       0.0  T
   2    -32.0732077 -0.869056E-08  0.782E-03    3.68       2.5  T
   3    -32.0732077  0.212422E-08  0.582E-04    3.68      33.7  T
   4    -32.0732077 -0.474535E-08  0.194E-04    3.68     101.0  T
   5    -32.0732077 -0.458421E-09  0.733E-05    3.68     267.4  T
   6    -32.0732077 -0.507896E-10  0.357E-05    3.68     549.8  T
   7    -32.0732077 -0.326850E-11  0.995E-06    3.68    1970.9  T
   8    -32.0732077 -0.426326E-12  0.427E-06    3.68    4596.9  T
     SCC iter.                  ...        0 min,  0.073 sec
     gradient                   ...        0 min,  0.002 sec
 * total energy  :   -31.5527580 Eh     change       -0.5376353E-05 Eh
   gradient norm :     0.0002201 Eh/α   predicted    -0.1806231E-05 ( -66.40%)
   displ. norm   :     0.0325688 α      lambda       -0.3328320E-05
   maximum displ.:     0.0312045 α      in ANC's #1, #3, #10, ...

........................................................................
.............................. CYCLE   41 ..............................
........................................................................

 iter      E             dE          RMSdq      gap      omega  full diag
   1    -32.0731965 -0.320732E+02  0.124E-02    3.68       0.0  T
   2    -32.0731965 -0.757017E-08  0.726E-03    3.68       2.7  T
   3    -32.0731965  0.251188E-08  0.565E-04    3.68      34.7  T
   4    -32.0731965 -0.480955E-08  0.184E-04    3.68     106.7  T
   5    -32.0731965 -0.429935E-09  0.681E-05    3.68     288.2  T
   6    -32.0731965 -0.445155E-10  0.332E-05    3.68     590.6  T
   7    -32.0731965 -0.235900E-11  0.976E-06    3.68    2010.0  T
   8    -32.0731965 -0.561329E-12  0.440E-06    3.68    4460.5  T
     SCC iter.                  ...        0 min,  0.072 sec
     gradient                   ...        0 min,  0.002 sec
 * total energy  :   -31.5527630 Eh     change       -0.4975739E-05 Eh
   gradient norm :     0.0002071 Eh/α   predicted    -0.1667167E-05 ( -66.49%)
   displ. norm   :     0.0310452 α      lambda       -0.3230893E-05
   maximum displ.:     0.0296470 α      in ANC's #1, #3, #5, ...

........................................................................
.............................. CYCLE   42 ..............................
........................................................................

 iter      E             dE          RMSdq      gap      omega  full diag
   1    -32.0731874 -0.320732E+02  0.119E-02    3.68       0.0  T
   2    -32.0731874 -0.706370E-08  0.697E-03    3.68       2.8  T
   3    -32.0731874  0.196329E-08  0.541E-04    3.68      36.2  T
   4    -32.0731875 -0.402341E-08  0.180E-04    3.68     109.2  T
   5    -32.0731875 -0.405485E-09  0.657E-05    3.68     298.3  T
   6    -32.0731875 -0.447429E-10  0.322E-05    3.68     608.2  T
   7    -32.0731875 -0.213163E-11  0.901E-06    3.68    2177.5  T
   8    -32.0731875 -0.547118E-12  0.421E-06    3.68    4653.0  T
     SCC iter.                  ...        0 min,  0.073 sec
     gradient                   ...        0 min,  0.002 sec
 * total energy  :   -31.5527678 Eh     change       -0.4820171E-05 Eh
   gradient norm :     0.0001954 Eh/α   predicted    -0.1621058E-05 ( -66.37%)
   displ. norm   :     0.0314975 α      lambda       -0.3241506E-05
   maximum displ.:     0.0301034 α      in ANC's #1, #3, #5, ...
 * RMSD in coord.:     0.1725261 α      energy gain  -0.2313391E-03 Eh

generating ANC from model Hessian ...
Using Lindh-Hessian (1995)
 Shifting diagonal of input Hessian by   9.293338286398332E-003
 Lowest  eigenvalues of input Hessian
    0.000000    0.000000    0.000000    0.000000    0.000000    0.000000
    0.010000    0.010597    0.010922    0.011418    0.011996    0.012258
    0.015789    0.016924    0.018335    0.018668    0.019704    0.024434
 Highest eigenvalues
    1.365208    1.552637    1.577314    1.881429    1.988180    2.006760
 

........................................................................
.............................. CYCLE   43 ..............................
........................................................................

 iter      E             dE          RMSdq      gap      omega  full diag
   1    -32.0731594 -0.320732E+02  0.121E-02    3.68       0.0  T
   2    -32.0731594 -0.724565E-08  0.710E-03    3.68       2.8  T
   3    -32.0731594  0.207987E-08  0.548E-04    3.68      35.8  T
   4    -32.0731594 -0.421806E-08  0.181E-04    3.68     108.1  T
   5    -32.0731594 -0.418176E-09  0.667E-05    3.68     293.9  T
   6    -32.0731594 -0.439329E-10  0.327E-05    3.68     599.0  T
   7    -32.0731594 -0.225953E-11  0.950E-06    3.68    2064.1  T
   8    -32.0731594 -0.589750E-12  0.441E-06    3.68    4443.0  T
     SCC iter.                  ...        0 min,  0.072 sec
     gradient                   ...        0 min,  0.002 sec
 * total energy  :   -31.5527727 Eh     change       -0.4911546E-05 Eh
   gradient norm :     0.0001959 Eh/α   predicted     0.0000000E+00 (-100.00%)
   displ. norm   :     0.0249787 α      lambda       -0.6614776E-07
   maximum displ.:     0.0242429 α      in ANC's #1, #2, #6, ...

........................................................................
.............................. CYCLE   44 ..............................
........................................................................

 iter      E             dE          RMSdq      gap      omega  full diag
   1    -32.0731993 -0.320732E+02  0.104E-02    3.68       0.0  T
   2    -32.0731994 -0.627796E-08  0.610E-03    3.68       3.2  T
   3    -32.0731994  0.166634E-08  0.522E-04    3.68      37.6  T
   4    -32.0731994 -0.329309E-08  0.156E-04    3.68     125.9  T
   5    -32.0731994 -0.300126E-09  0.607E-05    3.68     323.3  T
   6    -32.0731994 -0.510241E-10  0.299E-05    3.68     655.8  T
   7    -32.0731994 -0.326850E-11  0.696E-06    3.68    2818.2  T
   8    -32.0731994 -0.177636E-12  0.271E-06    3.68    7228.5  T
     SCC iter.                  ...        0 min,  0.073 sec
     gradient                   ...        0 min,  0.002 sec
 * total energy  :   -31.5527768 Eh     change       -0.4121803E-05 Eh
   gradient norm :     0.0001886 Eh/α   predicted    -0.1414708E-05 ( -65.68%)
   displ. norm   :     0.0294548 α      lambda       -0.3209730E-05
   maximum displ.:     0.0268300 α      in ANC's #1, #2, #6, ...

........................................................................
.............................. CYCLE   45 ..............................
........................................................................

 iter      E             dE          RMSdq      gap      omega  full diag
   1    -32.0732092 -0.320732E+02  0.121E-02    3.68       0.0  T
   2    -32.0732092 -0.893915E-08  0.716E-03    3.68       2.7  T
   3    -32.0732092  0.251908E-08  0.720E-04    3.68      27.2  T
   4    -32.0732092 -0.508950E-08  0.165E-04    3.68     118.7  T
   5    -32.0732092 -0.751115E-10  0.847E-05    3.68     231.5  T
   6    -32.0732092 -0.113367E-09  0.322E-05    3.68     608.8  T
   7    -32.0732092 -0.152056E-11  0.994E-06    3.68    1972.4  T
   8    -32.0732092 -0.532907E-12  0.415E-06    3.68    4730.3  T
     SCC iter.                  ...        0 min,  0.073 sec
     gradient                   ...        0 min,  0.002 sec
 * total energy  :   -31.5527815 Eh     change       -0.4658892E-05 Eh
   gradient norm :     0.0002068 Eh/α   predicted    -0.1605922E-05 ( -65.53%)
   displ. norm   :     0.0362235 α      lambda       -0.3754592E-05
   maximum displ.:     0.0320041 α      in ANC's #1, #2, #6, ...

........................................................................
.............................. CYCLE   46 ..............................
........................................................................

 iter      E             dE          RMSdq      gap      omega  full diag
   1    -32.0731647 -0.320732E+02  0.145E-02    3.68       0.0  T
   2    -32.0731648 -0.125382E-07  0.849E-03    3.68       2.3  T
   3    -32.0731648  0.363274E-08  0.790E-04    3.68      24.8  T
   4    -32.0731648 -0.669048E-08  0.245E-04    3.68      80.1  T
   5    -32.0731648 -0.640426E-09  0.108E-04    3.68     182.4  T
   6    -32.0731648 -0.147928E-09  0.442E-05    3.68     443.9  T
   7    -32.0731648 -0.232347E-11  0.137E-05    3.68    1431.0  T
   8    -32.0731648 -0.235900E-11  0.564E-06    3.68    3476.4  T
   9    -32.0731648 -0.206057E-12  0.264E-06    3.68    7422.0  T
     SCC iter.                  ...        0 min,  0.073 sec
     gradient                   ...        0 min,  0.002 sec
 * total energy  :   -31.5527869 Eh     change       -0.5465018E-05 Eh
   gradient norm :     0.0001942 Eh/α   predicted    -0.1879740E-05 ( -65.60%)
   displ. norm   :     0.0412433 α      lambda       -0.4172106E-05
   maximum displ.:     0.0362146 α      in ANC's #1, #2, #5, ...

........................................................................
.............................. CYCLE   47 ..............................
........................................................................

 iter      E             dE          RMSdq      gap      omega  full diag
   1    -32.0731720 -0.320732E+02  0.163E-02    3.68       0.0  T
   2    -32.0731720 -0.189850E-07  0.949E-03    3.68       2.1  T
   3    -32.0731720  0.996089E-09  0.786E-04    3.68      25.0  T
   4    -32.0731720 -0.406540E-08  0.327E-04    3.68      59.9  T
   5    -32.0731720 -0.145582E-08  0.106E-04    3.68     184.3  T
   6    -32.0731720 -0.126199E-09  0.487E-05    3.68     402.6  T
   7    -32.0731720 -0.449774E-11  0.149E-05    3.68    1313.9  T
   8    -32.0731720 -0.171241E-11  0.621E-06    3.68    3159.8  T
   9    -32.0731720 -0.447642E-12  0.272E-06    3.68    7209.1  T
     SCC iter.                  ...        0 min,  0.073 sec
     gradient                   ...        0 min,  0.002 sec
 * total energy  :   -31.5527930 Eh     change       -0.6092215E-05 Eh
   gradient norm :     0.0001849 Eh/α   predicted    -0.2088310E-05 ( -65.72%)
   displ. norm   :     0.0451132 α      lambda       -0.4522292E-05
   maximum displ.:     0.0397066 α      in ANC's #1, #2, #5, ...

........................................................................
.............................. CYCLE   48 ..............................
........................................................................

 iter      E             dE          RMSdq      gap      omega  full diag
   1    -32.0731762 -0.320732E+02  0.178E-02    3.68       0.0  T
   2    -32.0731762 -0.148278E-07  0.104E-02    3.68       1.9  T
   3    -32.0731762  0.289229E-08  0.785E-04    3.68      25.0  T
   4    -32.0731762 -0.704863E-08  0.263E-04    3.68      74.6  T
   5    -32.0731762 -0.754348E-09  0.104E-04    3.68     188.8  T
   6    -32.0731762 -0.118575E-09  0.485E-05    3.68     404.7  T
   7    -32.0731762 -0.494538E-11  0.137E-05    3.68    1432.2  T
   8    -32.0731762 -0.153477E-11  0.645E-06    3.68    3041.8  T
   9    -32.0731762 -0.262901E-12  0.311E-06    3.68    6309.7  T
     SCC iter.                  ...        0 min,  0.073 sec
     gradient                   ...        0 min,  0.002 sec
 * total energy  :   -31.5527997 Eh     change       -0.6653843E-05 Eh
   gradient norm :     0.0001833 Eh/α   predicted    -0.2264891E-05 ( -65.96%)
   displ. norm   :     0.0469913 α      lambda       -0.4730959E-05
   maximum displ.:     0.0418548 α      in ANC's #1, #2, #9, ...

........................................................................
.............................. CYCLE   49 ..............................
........................................................................

 iter      E             dE          RMSdq      gap      omega  full diag
   1    -32.0731755 -0.320732E+02  0.184E-02    3.68       0.0  T
[...]

           ------------------------------------------------- 
          |                Numerical Hessian                |
           ------------------------------------------------- 
step length          :   0.00500
SCC accuracy         :   0.30000
Hessian scale factor :   1.00000
frozen atoms in %    :   0.00000    0
RMS gradient         :   0.00004
estimated CPU  time      1.12 min
estimated wall time      0.13 min

writing file <hessian>.

 projected vibrational frequencies (cm⁻¹)
eigval :       -0.00    -0.00    -0.00     0.00     0.00     0.00
eigval :       17.99    50.45    65.16   121.27   122.36   164.35
eigval :      199.71   213.96   232.39   295.32   318.30   320.61
eigval :      363.62   401.32   450.38   586.11   657.50   668.71
eigval :      687.40   704.78   735.17   753.36   780.21   875.02
eigval :      899.15   926.85   932.96   969.39   975.72   998.48
eigval :     1003.55  1020.12  1062.78  1082.79  1085.05  1116.99
eigval :     1121.58  1181.69  1198.87  1217.02  1229.76  1244.53
eigval :     1255.31  1278.95  1315.83  1410.37  1411.00  1423.55
eigval :     1442.69  1449.93  1458.10  1497.22  1497.33  1501.66
eigval :     1501.87  1580.02  1589.62  2931.57  2936.87  2944.72
eigval :     2951.32  3013.91  3014.36  3019.30  3019.49  3029.50
eigval :     3030.60  3061.41  3063.73  3070.78  3076.99  3087.70
           -------------------------------------------------
          |                Property Printout                |
           -------------------------------------------------

    * Orbital Energies and Occupations

         #    Occupation            Energy/Eh            Energy/eV
      -------------------------------------------------------------
         1        2.0000           -0.6581227             -17.9084
       ...           ...                  ...                  ...
        18        2.0000           -0.4773540             -12.9895
        19        2.0000           -0.4746437             -12.9157
        20        2.0000           -0.4704142             -12.8006
        21        2.0000           -0.4563233             -12.4172
        22        2.0000           -0.4562086             -12.4141
        23        2.0000           -0.4422957             -12.0355
        24        2.0000           -0.4364989             -11.8777
        25        2.0000           -0.4232607             -11.5175
        26        2.0000           -0.4194496             -11.4138
        27        2.0000           -0.4052707             -11.0280
        28        2.0000           -0.4045323             -11.0079
        29        2.0000           -0.3970169             -10.8034
        30        2.0000           -0.3672925              -9.9945 (HOMO)
        31                         -0.2336381              -6.3576 (LUMO)
        32                         -0.2230331              -6.0690
        33                         -0.1549227              -4.2157
        34                         -0.1507377              -4.1018
        35                         -0.0927986              -2.5252
        36                          0.0046381               0.1262
        37                          0.0548383               1.4922
        38                          0.0923221               2.5122
        39                          0.1108739               3.0170
        40                          0.1352712               3.6809
        41                          0.1375437               3.7428
       ...                                ...                  ...
        64                          0.7794049              21.2087
      -------------------------------------------------------------
                  HL-Gap            0.1336544 Eh            3.6369 eV
             Fermi-level           -0.3004653 Eh           -8.1761 eV

     #   Z          covCN         q      C6AA      α(0)
     1  15 P        3.056    -0.118   165.589    23.117
     2   6 C        3.748    -0.047    21.475     6.610
     3   1 H        0.926     0.039     2.469     2.457
     4   1 H        0.925     0.042     2.418     2.432
     5   6 C        3.821    -0.096    22.317     6.723
     6   1 H        0.925     0.042     2.428     2.437
     7   1 H        0.925     0.036     2.501     2.473
     8   1 H        0.925     0.033     2.546     2.495
     9   6 C        2.916     0.011    27.768     8.641
    10   6 C        2.961    -0.027    28.681     8.784
    11   6 C        3.016    -0.030    28.728     8.792
    12   6 C        2.919    -0.031    28.784     8.798
    13   6 C        2.918    -0.030    28.749     8.793
    14   6 C        2.920    -0.029    28.734     8.790
    15   1 H        0.926     0.032     2.563     2.504
    16   1 H        0.925     0.040     2.451     2.448
    17   1 H        0.926     0.028     2.619     2.531
    18   1 H        0.926     0.030     2.588     2.516
    19   1 H        0.926     0.029     2.603     2.523
    20   6 C        3.748    -0.047    21.475     6.610
    21   1 H        0.925     0.042     2.420     2.433
    22   1 H        0.926     0.038     2.469     2.457
    23   6 C        3.821    -0.096    22.316     6.723
    24   1 H        0.925     0.036     2.501     2.473
    25   1 H        0.925     0.042     2.428     2.437
    26   1 H        0.925     0.033     2.546     2.495

 Mol. C6AA /au·bohr⁶  :       7598.937293
 Mol. C8AA /au·bohr⁸  :     202574.269549
 Mol. α(0) /au        :        139.490204


Wiberg/Mayer (AO) data.
largest (>0.10) Wiberg bond orders for each atom

 ---------------------------------------------------------------------------
     #   Z sym  total        # sym  WBO       # sym  WBO       # sym  WBO
 ---------------------------------------------------------------------------
     1  15 P    3.348 --    20 C    1.025     2 C    1.024     9 C    1.007
     2   6 C    3.993 --     1 P    1.024     5 C    1.017     3 H    0.958
                             4 H    0.951
     3   1 H    0.998 --     2 C    0.958
     4   1 H    0.998 --     2 C    0.951
     5   6 C    3.995 --     2 C    1.017     6 H    0.985     8 H    0.984
                             7 H    0.984
     6   1 H    0.998 --     5 C    0.985
     7   1 H    0.999 --     5 C    0.984
     8   1 H    0.999 --     5 C    0.984
     9   6 C    3.983 --    11 C    1.408    10 C    1.400     1 P    1.007
                            14 C    0.108
    10   6 C    3.993 --    12 C    1.450     9 C    1.400    15 H    0.961
                            13 C    0.111
    11   6 C    3.992 --    13 C    1.443     9 C    1.408    16 H    0.964
                            12 C    0.108
    12   6 C    3.993 --    10 C    1.450    14 C    1.432    17 H    0.970
                            11 C    0.108
    13   6 C    3.992 --    11 C    1.443    14 C    1.441    18 H    0.970
                            10 C    0.111
    14   6 C    3.985 --    13 C    1.441    12 C    1.432    19 H    0.971
                             9 C    0.108
    15   1 H    0.999 --    10 C    0.961
    16   1 H    0.998 --    11 C    0.964
    17   1 H    0.999 --    12 C    0.970
    18   1 H    0.999 --    13 C    0.970
    19   1 H    0.999 --    14 C    0.971
    20   6 C    3.993 --     1 P    1.025    23 C    1.017    22 H    0.958
                            21 H    0.951
    21   1 H    0.998 --    20 C    0.951
    22   1 H    0.998 --    20 C    0.958
    23   6 C    3.995 --    20 C    1.017    25 H    0.985    26 H    0.985
                            24 H    0.984
    24   1 H    0.999 --    23 C    0.984
    25   1 H    0.998 --    23 C    0.985
    26   1 H    0.999 --    23 C    0.985
 ---------------------------------------------------------------------------

Topologies differ in total number of bonds
Writing topology from bond orders to xtbtopo.mol

molecular dipole:
                 x           y           z       tot (Debye)
 q only:        0.164       0.117      -0.128
   full:        0.485       0.187      -0.378       1.633
molecular quadrupole (traceless):
                xx          xy          yy          xz          yz          zz
 q only:       -0.162       0.943      -0.496      -1.767      -1.302       0.658
  q+dip:       -0.037       1.189      -0.345      -9.346      -1.663       0.382
   full:       -0.260       0.878      -1.437      -6.352      -1.542       1.697

           -------------------------------------------------
          |                Geometry Summary                 |
           -------------------------------------------------

      molecular mass/u    :      166.2002322
   center of mass at/Å    :        2.2629515      -0.8168168      -3.6177596
  moments of inertia/u·Å² :        0.4041100E+03   0.6825203E+03   0.8622623E+03
rotational constants/cm⁻¹ :        0.4171545E-01   0.2469909E-01   0.1955047E-01

 * 25 selected distances

     #   Z          #   Z                                           value/Å
     1  15 P        2   6 C                                       1.8665385 (max)
     2   6 C        3   1 H                                       1.0939278
     2   6 C        4   1 H                                       1.0931483
     2   6 C        5   6 C                                       1.5223630
     5   6 C        6   1 H                                       1.0882565
     5   6 C        7   1 H                                       1.0890509
     5   6 C        8   1 H                                       1.0888150
     9   6 C       10   6 C                                       1.3900338
     9   6 C       11   6 C                                       1.3904395
    10   6 C       12   6 C                                       1.3825820
    11   6 C       13   6 C                                       1.3834059
    12   6 C       14   6 C                                       1.3854371
    13   6 C       14   6 C                                       1.3842114
    10   6 C       15   1 H                                       1.0809901
    11   6 C       16   1 H                                       1.0813740
    12   6 C       17   1 H                                       1.0809973
    13   6 C       18   1 H                                       1.0805166
    14   6 C       19   1 H                                       1.0803243 (min)
     1  15 P       20   6 C                                       1.8664662
    20   6 C       21   1 H                                       1.0931012
    20   6 C       22   1 H                                       1.0939767
    20   6 C       23   6 C                                       1.5223525
    23   6 C       24   1 H                                       1.0890186
    23   6 C       25   1 H                                       1.0882652
    23   6 C       26   1 H                                       1.0888101

 * 3 distinct bonds (by element types)

   Z      Z             #   av. dist./Å        max./Å        min./Å
   1 H    6 C          15     1.0873715     1.0939767     1.0803243
   6 C    6 C           8     1.4201032     1.5223630     1.3825820
   6 C   15 P           2     1.8665024     1.8665385     1.8664662

           -------------------------------------------------
          |               Frequency Printout                |
           -------------------------------------------------
 projected vibrational frequencies (cm⁻¹)
eigval :       -0.00    -0.00    -0.00     0.00     0.00     0.00
eigval :       17.99    50.45    65.16   121.27   122.36   164.35
eigval :      199.71   213.96   232.39   295.32   318.30   320.61
eigval :      363.62   401.32   450.38   586.11   657.50   668.71
eigval :      687.40   704.78   735.17   753.36   780.21   875.02
eigval :      899.15   926.85   932.96   969.39   975.72   998.48
eigval :     1003.55  1020.12  1062.78  1082.79  1085.05  1116.99
eigval :     1121.58  1181.69  1198.87  1217.02  1229.76  1244.53
eigval :     1255.31  1278.95  1315.83  1410.37  1411.00  1423.55
eigval :     1442.69  1449.93  1458.10  1497.22  1497.33  1501.66
eigval :     1501.87  1580.02  1589.62  2931.57  2936.87  2944.72
eigval :     2951.32  3013.91  3014.36  3019.30  3019.49  3029.50
eigval :     3030.60  3061.41  3063.73  3070.78  3076.99  3087.70
 reduced masses (amu)
   1: 12.31   2: 14.57   3: 11.77   4: 14.42   5: 13.73   6: 10.79   7:  9.53   8:  9.93
   9:  8.93  10:  7.12  11: 10.85  12:  6.88  13:  5.91  14:  5.28  15:  6.34  16: 10.36
  17: 12.88  18: 14.00  19:  8.83  20: 20.93  21: 10.12  22: 11.18  23: 10.31  24: 12.37
  25: 16.42  26: 16.18  27:  2.77  28:  4.02  29:  4.80  30:  3.30  31:  3.54  32:  4.19
  33:  3.01  34: 11.09  35:  2.22  36:  3.65  37:  2.97  38:  4.29  39:  9.72  40:  7.85
  41:  9.40  42:  7.68  43:  5.34  44:  1.33  45:  1.92  46:  3.62  47:  3.38  48:  4.54
  49:  4.27  50:  3.43  51: 11.95  52:  2.91  53:  2.96  54:  8.59  55:  2.03  56:  2.64
  57:  7.81  58:  1.52  59:  1.52  60:  1.56  61:  1.56  62: 11.45  63: 11.46  64:  1.95
  65:  1.96  66:  1.53  67:  1.50  68:  1.92  69:  1.92  70:  1.79  71:  1.80  72:  1.44
  73:  1.43  74:  1.76  75:  1.79  76:  1.82  77:  1.86  78:  1.91
 IR intensities (km·mol⁻¹)
   1:  0.13   2:  0.01   3:  0.01   4:  0.07   5:  0.07   6:  0.19   7:  0.08   8:  0.05
   9:  0.01  10:  0.09  11:  0.20  12:  0.29  13:  0.21  14:  0.20  15:  0.59  16:  0.14
  17:  0.30  18:  0.08  19:  0.00  20:  6.18  21:  2.24  22:  0.19  23:  0.39  24:  7.21
  25: 36.50  26: 28.00  27: 17.84  28:  0.10  29: 37.06  30:  0.01  31:  0.01  32:  0.01
  33:  0.00  34:  0.92  35:  4.21  36:  3.62  37:  2.65  38:  0.36  39:  6.60  40:  0.23
  41:  0.38  42:  4.97  43:  3.83  44:  0.01  45:  0.54  46:  0.52  47:  3.38  48:  6.14
  49:  7.36  50:  1.83  51:  1.07  52:  4.03  53:  0.05  54:  1.91  55:  0.26  56:  0.34
  57:  0.60  58:  0.21  59:  4.62  60:  0.56  61:  1.58  62:  0.65  63:  0.37  64:  1.33
  65: 49.70  66:  3.84  67: 39.56  68: 49.81  69: 48.51  70: 36.82  71: 26.46  72: 10.36
  73: 22.16  74: 10.01  75:  8.87  76: 12.44  77: 83.03  78: 62.17
 Raman intensities (Ä⁴*amu⁻¹)
   1:  0.00   2:  0.00   3:  0.00   4:  0.00   5:  0.00   6:  0.00   7:  0.00   8:  0.00
   9:  0.00  10:  0.00  11:  0.00  12:  0.00  13:  0.00  14:  0.00  15:  0.00  16:  0.00
  17:  0.00  18:  0.00  19:  0.00  20:  0.00  21:  0.00  22:  0.00  23:  0.00  24:  0.00
  25:  0.00  26:  0.00  27:  0.00  28:  0.00  29:  0.00  30:  0.00  31:  0.00  32:  0.00
  33:  0.00  34:  0.00  35:  0.00  36:  0.00  37:  0.00  38:  0.00  39:  0.00  40:  0.00
  41:  0.00  42:  0.00  43:  0.00  44:  0.00  45:  0.00  46:  0.00  47:  0.00  48:  0.00
  49:  0.00  50:  0.00  51:  0.00  52:  0.00  53:  0.00  54:  0.00  55:  0.00  56:  0.00
  57:  0.00  58:  0.00  59:  0.00  60:  0.00  61:  0.00  62:  0.00  63:  0.00  64:  0.00
  65:  0.00  66:  0.00  67:  0.00  68:  0.00  69:  0.00  70:  0.00  71:  0.00  72:  0.00
  73:  0.00  74:  0.00  75:  0.00  76:  0.00  77:  0.00  78:  0.00
 output can be read by thermo (or use thermo option).
 writing <g98.out> molden fake output.
 recommended (thermochemical) frequency scaling factor: 1.0
           -------------------------------------------------
          |             Thermodynamic Functions             |
           -------------------------------------------------

Refinement of some symmetry elements was terminated before convergence was reached.
Some symmetry elements may remain unidentified.
Molecule has the following symmetry elements: (sigma) 
It seems to be the Cs point group
cs  symmetry found (for desy threshold:  0.10E+00) used in thermo

          ...................................................
          :                      SETUP                      :
          :.................................................:
          :  # frequencies                          72      :
          :  # imaginary freq.                       0      :
          :  linear?                             false      :
          :  only rotor calc.                    false      :
          :  symmetry                               cs      :
          :  rotational number                       1      :
          :  scaling factor                  1.0000000      :
          :  rotor cutoff                   50.0000000 cm⁻¹ :
          :  imag. cutoff                  -20.0000000 cm⁻¹ :
          :.................................................:

    mode    ω/cm⁻¹     T·S(HO)/kcal·mol⁻¹    T·S(FR)/kcal·mol⁻¹   T·S(vib)
   ------------------------------------------------------------------------
       1     17.99    -2.04084 (  1.65%)    -1.35902 ( 98.35%)    -1.37025
       2     50.45    -1.43100 ( 50.90%)    -1.05373 ( 49.10%)    -1.24576
       3     65.16    -1.28039 ( 74.26%)    -0.97798 ( 25.74%)    -1.20254
       4    121.27    -0.91832 ( 97.19%)    -0.79402 (  2.81%)    -0.91483
       5    122.36    -0.91317 ( 97.29%)    -0.79137 (  2.71%)    -0.90986
       6    164.35    -0.74513 ( 99.15%)    -0.70399 (  0.85%)    -0.74478
       7    199.71    -0.63677 ( 99.61%)    -0.64626 (  0.39%)    -0.63681
       8    213.96    -0.59918 ( 99.70%)    -0.62585 (  0.30%)    -0.59926
       9    232.39    -0.55467 ( 99.79%)    -0.60137 (  0.21%)    -0.55477
      10    295.32    -0.43031 ( 99.92%)    -0.53039 (  0.08%)    -0.43040
   ------------------------------------------------------------------------

   temp. (K)  partition function   enthalpy   heat capacity  entropy
                                   cal/mol     cal/K/mol   cal/K/mol   J/K/mol
 298.15  VIB  0.376E+05             6234.383     39.147     38.691
         ROT  0.118E+07              888.752      2.981     30.762
         INT  0.443E+11             7123.135     42.127     69.453
         TR   0.207E+28             1481.254      4.968     41.214
         TOT                        8604.3890    47.0956   110.6662   463.0273

       T/K    H(0)-H(T)+PV         H(T)/Eh          T*S/Eh         G(T)/Eh
   ------------------------------------------------------------------------
    298.15    0.137120E-01    0.232230E+00    0.525811E-01    0.179649E+00
   ------------------------------------------------------------------------

         :::::::::::::::::::::::::::::::::::::::::::::::::::::
         ::                  THERMODYNAMIC                  ::
         :::::::::::::::::::::::::::::::::::::::::::::::::::::
         :: total free energy         -31.377372735483 Eh   ::
         ::.................................................::
         :: total energy              -31.557021820692 Eh   ::
         :: zero point energy           0.218518191259 Eh   ::
         :: G(RRHO) w/o ZPVE           -0.038869106050 Eh   ::
         :: G(RRHO) contrib.            0.179649085209 Eh   ::
         :::::::::::::::::::::::::::::::::::::::::::::::::::::

optimized geometry written to: xtbopt.xyz


           -------------------------------------------------
          | TOTAL ENERGY              -31.557021820692 Eh   |
          | TOTAL ENTHALPY            -31.324791662771 Eh   |
          | TOTAL FREE ENERGY         -31.377372735483 Eh   |
          | GRADIENT NORM               0.000039291656 Eh/α |
          | HOMO-LUMO GAP               3.636920310199 eV   |
           -------------------------------------------------

------------------------------------------------------------------------
 * finished run on 2025/07/14 at 11:29:50.727     
------------------------------------------------------------------------
 total:
 * wall-time:     0 d,  0 h,  0 min, 15.168 sec
 *  cpu-time:     0 d,  0 h,  2 min, 48.125 sec
 * ratio c/w:    11.084 speedup
 SCF:
 * wall-time:     0 d,  0 h,  0 min,  0.087 sec
 *  cpu-time:     0 d,  0 h,  0 min,  1.035 sec
 * ratio c/w:    11.940 speedup
 ANC optimizer:
 * wall-time:     0 d,  0 h,  0 min, 11.844 sec
 *  cpu-time:     0 d,  0 h,  2 min, 21.004 sec
 * ratio c/w:    11.905 speedup
 analytical hessian:
 * wall-time:     0 d,  0 h,  0 min,  3.228 sec
 *  cpu-time:     0 d,  0 h,  0 min, 25.984 sec
 * ratio c/w:     8.050 speedup

