      -----------------------------------------------------------      
     |                   =====================                   |     
     |                           x T B                           |     
     |                   =====================                   |     
     |                         S. Grimme                         |     
     |          Mulliken Center for Theoretical Chemistry        |     
     |                    University of Bonn                     |     
      -----------------------------------------------------------      

   * xtb version 6.7.0 (08769fc) compiled by 'albert@albert-system' on 2024-03-04

   xtb is free software: you can redistribute it and/or modify it under
   the terms of the GNU Lesser General Public License as published by
   the Free Software Foundation, either version 3 of the License, or
   (at your option) any later version.
   
   xtb is distributed in the hope that it will be useful,
   but WITHOUT ANY WARRANTY; without even the implied warranty of
   MERCHANTABILITY or FITNESS FOR A PARTICULAR PURPOSE.  See the
   GNU Lesser General Public License for more details.
   
   Cite this work as:
   * C. Bannwarth, E. Caldeweyher, S. Ehlert, A. Hansen, P. Pracht,
     J. Seibert, S. Spicher, S. Grimme, WIREs Comput. Mol. Sci., 2020, 11,
     e01493. DOI: 10.1002/wcms.1493
   
   for GFN2-xTB:
   * C. Bannwarth, S. Ehlert and S. Grimme., J. Chem. Theory Comput., 2019,
     15, 1652-1671. DOI: 10.1021/acs.jctc.8b01176
   for GFN1-xTB:
   * S. Grimme, C. Bannwarth, P. Shushkov, J. Chem. Theory Comput., 2017,
     13, 1989-2009. DOI: 10.1021/acs.jctc.7b00118
   for GFN0-xTB:
   * P. Pracht, E. Caldeweyher, S. Ehlert, S. Grimme, ChemRxiv, 2019, preprint.
     DOI: 10.26434/chemrxiv.8326202.v1
   for GFN-FF:
   * S. Spicher and S. Grimme, Angew. Chem. Int. Ed., 2020, 59, 15665-15673.
     DOI: 10.1002/anie.202004239
   
   for ALPB and GBSA implicit solvation:
   * S. Ehlert, M. Stahn, S. Spicher, S. Grimme, J. Chem. Theory Comput.,
     2021, 17, 4250-4261. DOI: 10.1021/acs.jctc.1c00471
   
   for ddCOSMO and CPCM-X implicit solvation:
   * M. Stahn, S. Ehlert, S. Grimme, J. Phys. Chem. A,
     2023, XX, XXXX-XXXX. DOI: 10.1021/acs.jpca.3c04382
   
   for DFT-D4:
   * E. Caldeweyher, C. Bannwarth and S. Grimme, J. Chem. Phys., 2017,
     147, 034112. DOI: 10.1063/1.4993215
   * E. Caldeweyher, S. Ehlert, A. Hansen, H. Neugebauer, S. Spicher,
     C. Bannwarth and S. Grimme, J. Chem. Phys., 2019, 150, 154122.
     DOI: 10.1063/1.5090222
   * E. Caldeweyher, J.-M. Mewes, S. Ehlert and S. Grimme, Phys. Chem. Chem. Phys.
     2020, 22, 8499-8512. DOI: 10.1039/D0CP00502A
   
   for sTDA-xTB:
   * S. Grimme and C. Bannwarth, J. Chem. Phys., 2016, 145, 054103.
     DOI: 10.1063/1.4959605
   
   in the mass-spec context:
   * V. Asgeirsson, C. Bauer and S. Grimme, Chem. Sci., 2017, 8, 4879.
     DOI: 10.1039/c7sc00601b
   * J. Koopman and S. Grimme, ACS Omega 2019, 4, 12, 15120-15133.
     DOI: 10.1021/acsomega.9b02011
   
   for metadynamics refer to:
   * S. Grimme, J. Chem. Theory Comput., 2019, 155, 2847-2862
     DOI: 10.1021/acs.jctc.9b00143
   
   for SPH calculations refer to:
   * S. Spicher and S. Grimme, J. Chem. Theory Comput., 2021, 17, 1701-1714
     DOI: 10.1021/acs.jctc.0c01306
   
   for ONIOM refer to:
   * C. Plett, A. Katbashev, S. Ehlert, S. Grimme, M. Bursch,
     Phys. Chem. Chem. Phys., 2023, 25, 17860-17868. DOI: 10.1039/D3CP02178E
   
   for DIPRO refer to:
   * J. Kohn, N. Gildemeister, S. Grimme, D. Fazzi, A. Hansen,
     J. Chem. Phys., 2023, just accepted.
   
   for PTB refer to:
   * S. Grimme, M. Mueller, A. Hansen, J. Chem. Phys., 2023, 158, 124111.
     DOI: 10.1063/5.0137838
   
   with help from (in alphabetical order)
   P. Atkinson, C. Bannwarth, F. Bohle, G. Brandenburg, E. Caldeweyher
   M. Checinski, S. Dohm, S. Ehlert, S. Ehrlich, I. Gerasimov, C. Hölzer
   A. Katbashev, J. Kohn, J. Koopman, C. Lavigne, S. Lehtola, F. März, M. Müller,
   F. Musil, H. Neugebauer, J. Pisarek, C. Plett, P. Pracht, F. Pultar,
   J. Seibert, P. Shushkov, S. Spicher, M. Stahn, M. Steiner, T. Strunk,
   J. Stückrath, T. Rose, and J. Unsleber
   
 * started run on 2025/07/14 at 11:30:23.650     
   ID    Z sym.   atoms
    1   15 P      1
    2    6 C      2, 5, 9-14, 20, 23
    3    1 H      3, 4, 6-8, 15-19, 21, 22, 24-26

           -------------------------------------------------
          |                Calculation Setup                |
           -------------------------------------------------

          program call               : /home/minenky/programs/xtb/xtb-dist/bin/xtb m1_00_PEt2Ph-PBE0-D3-TZ-uniMM_35.xyz --charge 0 --T --ohess extreme --cycles 5000 --acc 0.01 --iterations 5000
          coordinate file            : m1_00_PEt2Ph-PBE0-D3-TZ-uniMM_35.xyz
          omp threads                :                    12

########################################################################
[WARNING] Please study the warnings concerning your input carefully
-1- prog_main_parseArguments: Unknown option '--T' provided
########################################################################

           -------------------------------------------------
          |                 G F N 2 - x T B                 |
           -------------------------------------------------

        Reference                      10.1021/acs.jctc.8b01176
      * Hamiltonian:
        H0-scaling (s, p, d)           1.850000    2.230000    2.230000
        zeta-weighting                 0.500000
      * Dispersion:
        s8                             2.700000
        a1                             0.520000
        a2                             5.000000
        s9                             5.000000
      * Repulsion:
        kExp                           1.500000    1.000000
        rExp                           1.000000
      * Coulomb:
        alpha                          2.000000
        third order                    shell-resolved
        anisotropic                    true
        a3                             3.000000
        a5                             4.000000
        cn-shift                       1.200000
        cn-exp                         4.000000
        max-rad                        5.000000


          ...................................................
          :                      SETUP                      :
          :.................................................:
          :  # basis functions                  65          :
          :  # atomic orbitals                  64          :
          :  # shells                           38          :
          :  # electrons                        60          :
          :  max. iterations                  5000          :
          :  Hamiltonian                  GFN2-xTB          :
          :  restarted?                      false          :
          :  GBSA solvation                  false          :
          :  PC potential                    false          :
          :  electronic temp.          300.0000000     K    :
          :  accuracy                    0.0100000          :
          :  -> integral cutoff          0.4500000E+02      :
          :  -> integral neglect         0.1000000E-09      :
          :  -> SCF convergence          0.1000000E-07 Eh   :
          :  -> wf. convergence          0.1000000E-05 e    :
          :  Broyden damping             0.4000000          :
          :  net charge                          0          :
          :  unpaired electrons                  0          :
          ...................................................

 iter      E             dE          RMSdq      gap      omega  full diag
   1    -32.0165824 -0.320166E+02  0.415E+00    3.97       0.0  T
   2    -32.0597425 -0.431600E-01  0.247E+00    3.60       1.0  T
   3    -32.0589310  0.811463E-03  0.934E-01    3.36       1.0  T
   4    -32.0607988 -0.186785E-02  0.272E-01    3.41       1.0  T
   5    -32.0619078 -0.110896E-02  0.124E-01    3.45       1.0  T
   6    -32.0620962 -0.188385E-03  0.478E-02    3.44       1.0  T
   7    -32.0621143 -0.180796E-04  0.150E-02    3.44       1.3  T
   8    -32.0621152 -0.882809E-06  0.646E-03    3.44       3.0  T
   9    -32.0621155 -0.312929E-06  0.144E-03    3.44      13.7  T
  10    -32.0621155 -0.271980E-07  0.476E-04    3.44      41.2  T
  11    -32.0621155 -0.435293E-09  0.231E-04    3.44      84.8  T
  12    -32.0621155 -0.398082E-09  0.536E-05    3.44     366.0  T
  13    -32.0621155 -0.390088E-11  0.172E-05    3.44    1143.5  T
  14    -32.0621155 -0.270006E-12  0.642E-06    3.44    3054.0  T
  15    -32.0621155 -0.348166E-12  0.257E-06    3.44    7634.4  T

   *** convergence criteria satisfied after 15 iterations ***

         #    Occupation            Energy/Eh            Energy/eV
      -------------------------------------------------------------
         1        2.0000           -0.6601091             -17.9625
       ...           ...                  ...                  ...
        24        2.0000           -0.4399249             -11.9710
        25        2.0000           -0.4262166             -11.5979
        26        2.0000           -0.4153809             -11.3031
        27        2.0000           -0.4080918             -11.1047
        28        2.0000           -0.4020139             -10.9394
        29        2.0000           -0.4007606             -10.9053
        30        2.0000           -0.3558626              -9.6835 (HOMO)
        31                         -0.2293506              -6.2409 (LUMO)
        32                         -0.2221957              -6.0463
        33                         -0.1474095              -4.0112
        34                         -0.1420899              -3.8665
        35                         -0.0972174              -2.6454
       ...                                ...                  ...
        64                          0.7946353              21.6231
      -------------------------------------------------------------
                  HL-Gap            0.1265120 Eh            3.4426 eV
             Fermi-level           -0.2926066 Eh           -7.9622 eV

 SCC (total)                   0 d,  0 h,  0 min,  0.088 sec
 SCC setup                      ...        0 min,  0.000 sec (  0.141%)
 Dispersion                     ...        0 min,  0.000 sec (  0.138%)
 classical contributions        ...        0 min,  0.000 sec (  0.011%)
 integral evaluation            ...        0 min,  0.002 sec (  2.161%)
 iterations                     ...        0 min,  0.084 sec ( 95.325%)
 molecular gradient             ...        0 min,  0.002 sec (  2.115%)
 printout                       ...        0 min,  0.000 sec (  0.088%)

         :::::::::::::::::::::::::::::::::::::::::::::::::::::
         ::                     SUMMARY                     ::
         :::::::::::::::::::::::::::::::::::::::::::::::::::::
         :: total energy             -31.547194975389 Eh    ::
         :: gradient norm              0.036249367480 Eh/a0 ::
         :: HOMO-LUMO gap              3.442566584660 eV    ::
         ::.................................................::
         :: SCC energy               -32.061993766313 Eh    ::
         :: -> isotropic ES            0.004148895937 Eh    ::
         :: -> anisotropic ES          0.006799594777 Eh    ::
         :: -> anisotropic XC          0.021553778879 Eh    ::
         :: -> dispersion             -0.023444252822 Eh    ::
         :: repulsion energy           0.514798790925 Eh    ::
         :: add. restraining           0.000000000000 Eh    ::
         :: total charge              -0.000000000000 e     ::
         :::::::::::::::::::::::::::::::::::::::::::::::::::::

      ----------------------------------------------------------- 
     |                   =====================                   |
     |                        A N C O P T                        |
     |                   =====================                   |
     |               Approximate Normal Coordinate               |
     |                Rational Function Optimizer                |
      ----------------------------------------------------------- 
      ----------------------------------------------------------- 
     |                   =====================                   |
     |                        A N C O P T                        |
     |                   =====================                   |
     |               Approximate Normal Coordinate               |
     |                Rational Function Optimizer                |
      ----------------------------------------------------------- 

          ...................................................
          :                      SETUP                      :
          :.................................................:
          :   optimization level           extreme          :
          :   max. optcycles                  5000          :
          :   ANC micro-cycles                  20          :
          :   degrees of freedom                72          :
          :.................................................:
          :   RF solver                   davidson          :
          :   write xtbopt.log                true          :
          :   linear?                        false          :
          :   energy convergence         0.5000000E-07 Eh   :
          :   grad. convergence          0.5000000E-04 Eh/α :
          :   maxmium RF displ.          1.0000000          :
          :   Hlow (freq-cutoff)         0.1000000E-01      :
          :   Hmax (freq-cutoff)         5.0000000          :
          :   S6 in model hess.         20.0000000          :
          ...................................................

generating ANC from model Hessian ...
Using Lindh-Hessian (1995)
 Shifting diagonal of input Hessian by   9.680104497898391E-003
 Lowest  eigenvalues of input Hessian
    0.000000    0.000000    0.000000    0.000000    0.000000    0.000000
    0.010000    0.010595    0.011043    0.011463    0.012235    0.012789
    0.016567    0.017730    0.019139    0.019939    0.022825    0.024282
 Highest eigenvalues
    1.347630    1.536056    1.562340    1.864868    1.966420    1.986270
 

........................................................................
.............................. CYCLE    1 ..............................
........................................................................

 iter      E             dE          RMSdq      gap      omega  full diag
   1    -32.0621155 -0.320621E+02  0.144E-06    3.44       0.0  T
   2    -32.0621155 -0.355271E-13  0.731E-07    3.44   26821.7  T
   3    -32.0621155 -0.710543E-14  0.556E-07    3.44   35259.0  T
     SCC iter.                  ...        0 min,  0.073 sec
     gradient                   ...        0 min,  0.002 sec
 * total energy  :   -31.5471950 Eh     change       -0.6394885E-13 Eh
   gradient norm :     0.0362494 Eh/α   predicted     0.0000000E+00 (-100.00%)
   displ. norm   :     0.3642402 α      lambda       -0.6905049E-02
   maximum displ.:     0.2021841 α      in ANC's #1, #10, #9, ...

........................................................................
.............................. CYCLE    2 ..............................
........................................................................

 iter      E             dE          RMSdq      gap      omega  full diag
   1    -32.0688394 -0.320688E+02  0.352E-01    3.63       0.0  T
   2    -32.0689993 -0.159907E-03  0.171E-01    3.66       1.0  T
   3    -32.0690026 -0.330049E-05  0.611E-02    3.68       1.0  T
   4    -32.0690036 -0.108028E-05  0.351E-02    3.68       1.0  T
   5    -32.0690222 -0.185176E-04  0.845E-03    3.68       2.3  T
   6    -32.0690224 -0.245255E-06  0.284E-03    3.68       6.9  T
   7    -32.0690224 -0.921072E-08  0.894E-04    3.68      21.9  T
   8    -32.0690224 -0.599975E-09  0.257E-04    3.68      76.4  T
   9    -32.0690224 -0.776708E-09  0.872E-05    3.68     224.8  T
  10    -32.0690224 -0.113658E-09  0.329E-05    3.68     595.9  T
  11    -32.0690224 -0.216716E-11  0.147E-05    3.68    1334.2  T
  12    -32.0690224 -0.242295E-11  0.427E-06    3.68    4597.4  T
  13    -32.0690224  0.355271E-13  0.223E-06    3.68    8788.2  T
     SCC iter.                  ...        0 min,  0.076 sec
     gradient                   ...        0 min,  0.002 sec
 * total energy  :   -31.5509383 Eh     change       -0.3743342E-02 Eh
   gradient norm :     0.0119813 Eh/α   predicted    -0.3910659E-02 (   4.47%)
   displ. norm   :     0.3130805 α      lambda       -0.1575740E-02
   maximum displ.:     0.2108354 α      in ANC's #1, #3, #10, ...

........................................................................
.............................. CYCLE    3 ..............................
........................................................................

 iter      E             dE          RMSdq      gap      omega  full diag
   1    -32.0725529 -0.320726E+02  0.126E-01    3.67       0.0  T
   2    -32.0725568 -0.394137E-05  0.712E-02    3.66       1.0  T
   3    -32.0725567  0.164221E-06  0.110E-02    3.65       1.8  T
   4    -32.0725572 -0.594103E-06  0.489E-03    3.65       4.0  T
   5    -32.0725574 -0.156009E-06  0.158E-03    3.65      12.4  T
   6    -32.0725575 -0.531897E-07  0.526E-04    3.65      37.3  T
   7    -32.0725575 -0.920373E-09  0.237E-04    3.65      82.8  T
   8    -32.0725575 -0.195946E-09  0.860E-05    3.65     228.0  T
   9    -32.0725575 -0.380282E-10  0.317E-05    3.65     618.6  T
  10    -32.0725575 -0.918732E-11  0.131E-05    3.65    1500.8  T
  11    -32.0725575 -0.561329E-12  0.484E-06    3.65    4049.1  T
  12    -32.0725575 -0.497380E-13  0.163E-06    3.65   12035.4  T
     SCC iter.                  ...        0 min,  0.075 sec
     gradient                   ...        0 min,  0.002 sec
 * total energy  :   -31.5520643 Eh     change       -0.1125996E-02 Eh
   gradient norm :     0.0063670 Eh/α   predicted    -0.8652192E-03 ( -23.16%)
   displ. norm   :     0.3714257 α      lambda       -0.1021196E-02
   maximum displ.:     0.2135893 α      in ANC's #1, #3, #5, ...

........................................................................
.............................. CYCLE    4 ..............................
........................................................................

 iter      E             dE          RMSdq      gap      omega  full diag
   1    -32.0721928 -0.320722E+02  0.107E-01    3.66       0.0  T
   2    -32.0721957 -0.290696E-05  0.652E-02    3.66       1.0  T
   3    -32.0721937  0.208812E-05  0.150E-02    3.66       1.3  T
   4    -32.0721964 -0.270638E-05  0.278E-03    3.66       7.1  T
   5    -32.0721964 -0.742089E-07  0.162E-03    3.66      12.1  T
   6    -32.0721965 -0.398845E-07  0.546E-04    3.66      35.9  T
   7    -32.0721965 -0.690576E-10  0.214E-04    3.66      91.7  T
   8    -32.0721965 -0.401656E-09  0.672E-05    3.66     292.0  T
   9    -32.0721965 -0.341487E-10  0.289E-05    3.66     678.9  T
  10    -32.0721965 -0.541434E-11  0.843E-06    3.66    2326.7  T
  11    -32.0721965 -0.213163E-12  0.327E-06    3.66    5989.2  T
     SCC iter.                  ...        0 min,  0.075 sec
     gradient                   ...        0 min,  0.002 sec
 * total energy  :   -31.5528262 Eh     change       -0.7618548E-03 Eh
   gradient norm :     0.0059521 Eh/α   predicted    -0.5810482E-03 ( -23.73%)
   displ. norm   :     0.3942550 α      lambda       -0.7170846E-03
   maximum displ.:     0.2123965 α      in ANC's #1, #3, #5, ...

........................................................................
.............................. CYCLE    5 ..............................
........................................................................

 iter      E             dE          RMSdq      gap      omega  full diag
   1    -32.0712416 -0.320712E+02  0.106E-01    3.66       0.0  T
   2    -32.0712440 -0.235155E-05  0.650E-02    3.66       1.0  T
   3    -32.0712422  0.179349E-05  0.148E-02    3.66       1.3  T
   4    -32.0712445 -0.235534E-05  0.250E-03    3.66       7.8  T
   5    -32.0712446 -0.417050E-07  0.173E-03    3.66      11.3  T
   6    -32.0712446 -0.378606E-07  0.630E-04    3.66      31.1  T
   7    -32.0712446 -0.414111E-09  0.191E-04    3.66     102.6  T
   8    -32.0712446 -0.277701E-09  0.648E-05    3.66     302.7  T
   9    -32.0712446 -0.401954E-10  0.264E-05    3.66     742.8  T
  10    -32.0712446 -0.342482E-11  0.827E-06    3.66    2371.4  T
  11    -32.0712446 -0.348166E-12  0.328E-06    3.66    5986.3  T
     SCC iter.                  ...        0 min,  0.074 sec
     gradient                   ...        0 min,  0.002 sec
 * total energy  :   -31.5533519 Eh     change       -0.5257499E-03 Eh
   gradient norm :     0.0066381 Eh/α   predicted    -0.4142781E-03 ( -21.20%)
   displ. norm   :     0.3455305 α      lambda       -0.4829250E-03
   maximum displ.:     0.1815791 α      in ANC's #1, #3, #5, ...

........................................................................
.............................. CYCLE    6 ..............................
........................................................................

 iter      E             dE          RMSdq      gap      omega  full diag
   1    -32.0716306 -0.320716E+02  0.964E-02    3.66       0.0  T
   2    -32.0716324 -0.181696E-05  0.575E-02    3.66       1.0  T
   3    -32.0716317  0.785415E-06  0.127E-02    3.66       1.5  T
   4    -32.0716329 -0.119660E-05  0.202E-03    3.66       9.7  T
   5    -32.0716329 -0.112314E-07  0.138E-03    3.66      14.2  T
   6    -32.0716329 -0.202360E-07  0.536E-04    3.66      36.6  T
   7    -32.0716329 -0.760082E-09  0.142E-04    3.66     138.0  T
   8    -32.0716329 -0.103356E-09  0.551E-05    3.66     355.7  T
   9    -32.0716329 -0.380069E-10  0.211E-05    3.66     931.3  T
  10    -32.0716329 -0.866862E-12  0.693E-06    3.66    2829.6  T
  11    -32.0716329 -0.575540E-12  0.207E-06    3.66    9491.9  T
     SCC iter.                  ...        0 min,  0.075 sec
     gradient                   ...        0 min,  0.002 sec
 * total energy  :   -31.5537036 Eh     change       -0.3516360E-03 Eh
   gradient norm :     0.0048827 Eh/α   predicted    -0.2702946E-03 ( -23.13%)
   displ. norm   :     0.2928145 α      lambda       -0.3287183E-03
   maximum displ.:     0.1517615 α      in ANC's #5, #1, #3, ...

........................................................................
.............................. CYCLE    7 ..............................
........................................................................

 iter      E             dE          RMSdq      gap      omega  full diag
   1    -32.0732583 -0.320733E+02  0.862E-02    3.67       0.0  T
   2    -32.0732594 -0.112849E-05  0.502E-02    3.66       1.0  T
   3    -32.0732590  0.360575E-06  0.932E-03    3.66       2.1  T
   4    -32.0732596 -0.605135E-06  0.205E-03    3.66       9.6  T
   5    -32.0732597 -0.176915E-07  0.104E-03    3.66      18.8  T
   6    -32.0732597 -0.957676E-08  0.456E-04    3.66      43.0  T
   7    -32.0732597 -0.817835E-09  0.102E-04    3.66     192.9  T
   8    -32.0732597 -0.114959E-09  0.426E-05    3.66     460.2  T
   9    -32.0732597 -0.171312E-10  0.169E-05    3.66    1158.1  T
  10    -32.0732597 -0.916600E-12  0.606E-06    3.66    3236.0  T
  11    -32.0732597 -0.639488E-12  0.196E-06    3.66   10024.5  T
     SCC iter.                  ...        0 min,  0.073 sec
     gradient                   ...        0 min,  0.002 sec
 * total energy  :   -31.5539402 Eh     change       -0.2366127E-03 Eh
   gradient norm :     0.0033138 Eh/α   predicted    -0.1784571E-03 ( -24.58%)
   displ. norm   :     0.2674885 α      lambda       -0.2184979E-03
   maximum displ.:     0.1389675 α      in ANC's #5, #1, #3, ...

........................................................................
.............................. CYCLE    8 ..............................
........................................................................

 iter      E             dE          RMSdq      gap      omega  full diag
   1    -32.0742535 -0.320743E+02  0.746E-02    3.67       0.0  T
   2    -32.0742541 -0.631533E-06  0.436E-02    3.67       1.0  T
   3    -32.0742539  0.238242E-06  0.605E-03    3.67       3.2  T
   4    -32.0742543 -0.364887E-06  0.220E-03    3.67       8.9  T
   5    -32.0742543 -0.421956E-07  0.872E-04    3.67      22.5  T
   6    -32.0742543 -0.612709E-08  0.372E-04    3.67      52.7  T
   7    -32.0742543 -0.287649E-09  0.105E-04    3.67     186.6  T
   8    -32.0742543 -0.183149E-09  0.410E-05    3.67     478.8  T
   9    -32.0742543 -0.691358E-11  0.142E-05    3.67    1377.2  T
  10    -32.0742543 -0.110134E-11  0.552E-06    3.67    3552.9  T
  11    -32.0742543 -0.326850E-12  0.222E-06    3.67    8832.1  T
     SCC iter.                  ...        0 min,  0.074 sec
     gradient                   ...        0 min,  0.002 sec
 * total energy  :   -31.5541012 Eh     change       -0.1610342E-03 Eh
   gradient norm :     0.0035662 Eh/α   predicted    -0.1170676E-03 ( -27.30%)
   displ. norm   :     0.2458925 α      lambda       -0.1697425E-03
   maximum displ.:     0.1222280 α      in ANC's #4, #1, #5, ...

........................................................................
.............................. CYCLE    9 ..............................
........................................................................

 iter      E             dE          RMSdq      gap      omega  full diag
   1    -32.0751804 -0.320752E+02  0.659E-02    3.66       0.0  T
   2    -32.0751809 -0.458841E-06  0.384E-02    3.66       1.0  T
   3    -32.0751807  0.141625E-06  0.440E-03    3.66       4.5  T
   4    -32.0751809 -0.198440E-06  0.214E-03    3.66       9.2  T
   5    -32.0751810 -0.752744E-07  0.527E-04    3.66      37.2  T
   6    -32.0751810 -0.290285E-09  0.231E-04    3.66      84.9  T
   7    -32.0751810 -0.293760E-09  0.668E-05    3.66     293.4  T
   8    -32.0751810 -0.552944E-10  0.371E-05    3.66     528.4  T
   9    -32.0751810 -0.742517E-11  0.120E-05    3.66    1633.0  T
  10    -32.0751810 -0.326850E-12  0.458E-06    3.66    4277.9  T
  11    -32.0751810 -0.994760E-13  0.246E-06    3.66    7974.2  T
     SCC iter.                  ...        0 min,  0.073 sec
     gradient                   ...        0 min,  0.002 sec
 * total energy  :   -31.5542277 Eh     change       -0.1264867E-03 Eh
   gradient norm :     0.0038259 Eh/α   predicted    -0.9000809E-04 ( -28.84%)
   displ. norm   :     0.2145112 α      lambda       -0.1229870E-03
   maximum displ.:     0.1207166 α      in ANC's #4, #1, #5, ...

........................................................................
.............................. CYCLE   10 ..............................
........................................................................

 iter      E             dE          RMSdq      gap      omega  full diag
   1    -32.0747065 -0.320747E+02  0.586E-02    3.66       0.0  T
   2    -32.0747068 -0.316338E-06  0.342E-02    3.66       1.0  T
   3    -32.0747067  0.105365E-06  0.349E-03    3.66       5.6  T
   4    -32.0747069 -0.156892E-06  0.164E-03    3.66      11.9  T
   5    -32.0747069 -0.424649E-07  0.417E-04    3.66      47.0  T
   6    -32.0747069 -0.663313E-09  0.232E-04    3.66      84.6  T
   7    -32.0747069 -0.914326E-10  0.628E-05    3.66     312.5  T
   8    -32.0747069 -0.315694E-10  0.254E-05    3.66     772.0  T
   9    -32.0747069 -0.502354E-11  0.123E-05    3.66    1599.3  T
  10    -32.0747069 -0.101608E-11  0.390E-06    3.66    5033.5  T
  11    -32.0747069  0.142109E-13  0.186E-06    3.66   10541.6  T
     SCC iter.                  ...        0 min,  0.074 sec
     gradient                   ...        0 min,  0.002 sec
 * total energy  :   -31.5543228 Eh     change       -0.9515078E-04 Eh
   gradient norm :     0.0031800 Eh/α   predicted    -0.6432339E-04 ( -32.40%)
   displ. norm   :     0.1996330 α      lambda       -0.1217528E-03
   maximum displ.:     0.1446916 α      in ANC's #4, #10, #1, ...

........................................................................
.............................. CYCLE   11 ..............................
........................................................................

 iter      E             dE          RMSdq      gap      omega  full diag
   1    -32.0758633 -0.320759E+02  0.562E-02    3.65       0.0  T
   2    -32.0758637 -0.374508E-06  0.334E-02    3.65       1.0  T
   3    -32.0758635  0.159796E-06  0.458E-03    3.65       4.3  T
   4    -32.0758637 -0.231435E-06  0.139E-03    3.65      14.1  T
   5    -32.0758637 -0.171579E-07  0.763E-04    3.65      25.7  T
   6    -32.0758638 -0.666861E-08  0.269E-04    3.65      72.9  T
   7    -32.0758638 -0.214655E-09  0.962E-05    3.65     203.9  T
   8    -32.0758638 -0.118646E-09  0.277E-05    3.65     708.5  T
   9    -32.0758638 -0.487432E-11  0.129E-05    3.65    1524.8  T
  10    -32.0758638 -0.362377E-12  0.377E-06    3.65    5204.0  T
  11    -32.0758638 -0.120792E-12  0.187E-06    3.65   10474.6  T
     SCC iter.                  ...        0 min,  0.074 sec
     gradient                   ...        0 min,  0.002 sec
 * total energy  :   -31.5544103 Eh     change       -0.8749615E-04 Eh
   gradient norm :     0.0029879 Eh/α   predicted    -0.6330766E-04 ( -27.65%)
   displ. norm   :     0.2413522 α      lambda       -0.1120582E-03
   maximum displ.:     0.1522984 α      in ANC's #4, #1, #5, ...

........................................................................
.............................. CYCLE   12 ..............................
........................................................................

 iter      E             dE          RMSdq      gap      omega  full diag
   1    -32.0736284 -0.320736E+02  0.721E-02    3.65       0.0  T
   2    -32.0736290 -0.524437E-06  0.426E-02    3.65       1.0  T
   3    -32.0736289  0.472911E-07  0.370E-03    3.65       5.3  T
   4    -32.0736290 -0.131470E-06  0.181E-03    3.65      10.8  T
   5    -32.0736291 -0.395192E-07  0.584E-04    3.65      33.6  T
   6    -32.0736291 -0.307253E-08  0.300E-04    3.65      65.3  T
   7    -32.0736291 -0.284317E-09  0.101E-04    3.65     193.7  T
   8    -32.0736291 -0.794174E-10  0.328E-05    3.65     598.7  T
   9    -32.0736291 -0.131379E-10  0.164E-05    3.65    1194.2  T
  10    -32.0736291 -0.145661E-11  0.555E-06    3.65    3534.3  T
  11    -32.0736291 -0.163425E-12  0.209E-06    3.65    9363.3  T
     SCC iter.                  ...        0 min,  0.074 sec
     gradient                   ...        0 min,  0.002 sec
 * total energy  :   -31.5544886 Eh     change       -0.7822929E-04 Eh
   gradient norm :     0.0031576 Eh/α   predicted    -0.5929363E-04 ( -24.21%)
   displ. norm   :     0.2171345 α      lambda       -0.1150145E-03
   maximum displ.:     0.1557225 α      in ANC's #4, #2, #7, ...

........................................................................
.............................. CYCLE   13 ..............................
........................................................................

 iter      E             dE          RMSdq      gap      omega  full diag
   1    -32.0739508 -0.320740E+02  0.597E-02    3.65       0.0  T
   2    -32.0739510 -0.240487E-06  0.354E-02    3.65       1.0  T
   3    -32.0739510 -0.256161E-07  0.257E-03    3.65       7.6  T
   4    -32.0739511 -0.417116E-07  0.104E-03    3.65      18.8  T
   5    -32.0739511 -0.211966E-08  0.628E-04    3.65      31.2  T
   6    -32.0739511 -0.281355E-08  0.201E-04    3.65      97.4  T
   7    -32.0739511 -0.386393E-09  0.732E-05    3.65     267.9  T
   8    -32.0739511 -0.550173E-10  0.200E-05    3.65     982.6  T
   9    -32.0739511 -0.589750E-12  0.102E-05    3.65    1929.7  T
  10    -32.0739511 -0.888178E-12  0.260E-06    3.65    7541.3  T
  11    -32.0739511 -0.994760E-13  0.133E-06    3.65   14721.9  T
     SCC iter.                  ...        0 min,  0.075 sec
     gradient                   ...        0 min,  0.002 sec
 * total energy  :   -31.5545800 Eh     change       -0.9144809E-04 Eh
   gradient norm :     0.0035318 Eh/α   predicted    -0.6021880E-04 ( -34.15%)
   displ. norm   :     0.3167015 α      lambda       -0.1564541E-03
   maximum displ.:     0.2133552 α      in ANC's #4, #2, #7, ...

........................................................................
.............................. CYCLE   14 ..............................
........................................................................

 iter      E             dE          RMSdq      gap      omega  full diag
   1    -32.0733954 -0.320734E+02  0.877E-02    3.65       0.0  T
   2    -32.0733961 -0.710197E-06  0.519E-02    3.66       1.0  T
   3    -32.0733961  0.499895E-07  0.629E-03    3.66       3.1  T
   4    -32.0733963 -0.216956E-06  0.184E-03    3.66      10.7  T
   5    -32.0733963  0.991392E-09  0.104E-03    3.66      18.9  T
   6    -32.0733963 -0.964859E-08  0.463E-04    3.66      42.4  T
   7    -32.0733963 -0.133177E-08  0.959E-05    3.66     204.5  T
   8    -32.0733963 -0.715161E-10  0.410E-05    3.66     478.1  T
   9    -32.0733963 -0.564171E-11  0.209E-05    3.66     940.1  T
  10    -32.0733963 -0.108002E-11  0.471E-06    3.66    4165.0  T
  11    -32.0733963 -0.213163E-12  0.178E-06    3.66   11004.4  T
     SCC iter.                  ...        0 min,  0.074 sec
     gradient                   ...        0 min,  0.002 sec
 * total energy  :   -31.5546934 Eh     change       -0.1134007E-03 Eh
   gradient norm :     0.0047124 Eh/α   predicted    -0.8607395E-04 ( -24.10%)
   displ. norm   :     0.2201530 α      lambda       -0.1283382E-03
   maximum displ.:     0.1295831 α      in ANC's #2, #4, #6, ...

........................................................................
.............................. CYCLE   15 ..............................
........................................................................

 iter      E             dE          RMSdq      gap      omega  full diag
   1    -32.0750363 -0.320750E+02  0.609E-02    3.66       0.0  T
   2    -32.0750367 -0.347308E-06  0.353E-02    3.66       1.0  T
   3    -32.0750366  0.805379E-07  0.390E-03    3.66       5.0  T
   4    -32.0750368 -0.152497E-06  0.160E-03    3.66      12.3  T
   5    -32.0750368 -0.244237E-07  0.569E-04    3.66      34.5  T
   6    -32.0750368 -0.194537E-08  0.287E-04    3.66      68.4  T
   7    -32.0750368 -0.462336E-09  0.649E-05    3.66     302.1  T
   8    -32.0750368 -0.283151E-10  0.257E-05    3.66     764.3  T
   9    -32.0750368 -0.727596E-11  0.102E-05    3.66    1919.0  T
  10    -32.0750368 -0.326850E-12  0.428E-06    3.66    4583.7  T
  11    -32.0750368 -0.156319E-12  0.159E-06    3.66   12300.9  T
     SCC iter.                  ...        0 min,  0.074 sec
     gradient                   ...        0 min,  0.002 sec
 * total energy  :   -31.5547808 Eh     change       -0.8737951E-04 Eh
   gradient norm :     0.0043191 Eh/α   predicted    -0.6727955E-04 ( -23.00%)
   displ. norm   :     0.2268261 α      lambda       -0.9434154E-04
   maximum displ.:     0.1359365 α      in ANC's #2, #4, #6, ...

........................................................................
.............................. CYCLE   16 ..............................
........................................................................

 iter      E             dE          RMSdq      gap      omega  full diag
   1    -32.0740349 -0.320740E+02  0.712E-02    3.67       0.0  T
   2    -32.0740357 -0.797796E-06  0.418E-02    3.67       1.0  T
   3    -32.0740355  0.210930E-06  0.706E-03    3.67       2.8  T
   4    -32.0740358 -0.333350E-06  0.214E-03    3.67       9.2  T
   5    -32.0740358 -0.222676E-07  0.100E-03    3.67      19.6  T
   6    -32.0740358 -0.155287E-07  0.438E-04    3.67      44.8  T
   7    -32.0740358 -0.395914E-09  0.798E-05    3.67     245.6  T
   8    -32.0740358 -0.100897E-09  0.291E-05    3.67     675.0  T
   9    -32.0740358 -0.349587E-11  0.144E-05    3.67    1365.9  T
  10    -32.0740358 -0.105160E-11  0.471E-06    3.67    4167.7  T
  11    -32.0740358 -0.206057E-12  0.170E-06    3.67   11533.7  T
     SCC iter.                  ...        0 min,  0.074 sec
     gradient                   ...        0 min,  0.002 sec
 * total energy  :   -31.5548453 Eh     change       -0.6448017E-04 Eh
   gradient norm :     0.0041868 Eh/α   predicted    -0.4960282E-04 ( -23.07%)
   displ. norm   :     0.1444951 α      lambda       -0.8944290E-04
   maximum displ.:     0.1125023 α      in ANC's #2, #4, #6, ...

........................................................................
.............................. CYCLE   17 ..............................
........................................................................

 iter      E             dE          RMSdq      gap      omega  full diag
   1    -32.0763361 -0.320763E+02  0.492E-02    3.67       0.0  T
   2    -32.0763368 -0.714099E-06  0.277E-02    3.67       1.0  T
   3    -32.0763368  0.158415E-07  0.490E-03    3.67       4.0  T
   4    -32.0763369 -0.745113E-07  0.154E-03    3.67      12.8  T
   5    -32.0763369 -0.173758E-07  0.745E-04    3.67      26.3  T
   6    -32.0763369 -0.629107E-08  0.291E-04    3.67      67.4  T
   7    -32.0763369 -0.148098E-09  0.104E-04    3.67     187.8  T
   8    -32.0763369 -0.606022E-10  0.255E-05    3.67     768.2  T
   9    -32.0763369 -0.483880E-11  0.161E-05    3.67    1215.4  T
  10    -32.0763369 -0.200373E-11  0.459E-06    3.67    4270.7  T
  11    -32.0763369 -0.213163E-13  0.142E-06    3.67   13831.2  T
     SCC iter.                  ...        0 min,  0.074 sec
     gradient                   ...        0 min,  0.002 sec
 * total energy  :   -31.5548968 Eh     change       -0.5154636E-04 Eh
   gradient norm :     0.0027725 Eh/α   predicted    -0.4565851E-04 ( -11.42%)
   displ. norm   :     0.2484408 α      lambda       -0.7084905E-04
   maximum displ.:     0.1579603 α      in ANC's #4, #2, #6, ...

........................................................................
.............................. CYCLE   18 ..............................
........................................................................

 iter      E             dE          RMSdq      gap      omega  full diag
   1    -32.0747930 -0.320748E+02  0.772E-02    3.68       0.0  T
   2    -32.0747939 -0.829207E-06  0.448E-02    3.67       1.0  T
   3    -32.0747938  0.337114E-07  0.451E-03    3.67       4.3  T
   4    -32.0747940 -0.121417E-06  0.209E-03    3.67       9.4  T
   5    -32.0747940 -0.546380E-07  0.849E-04    3.67      23.1  T
   6    -32.0747940 -0.464430E-08  0.291E-04    3.67      67.4  T
   7    -32.0747940 -0.159297E-09  0.121E-04    3.67     162.3  T
   8    -32.0747940 -0.151161E-09  0.495E-05    3.67     396.0  T
   9    -32.0747940 -0.215721E-10  0.197E-05    3.67     993.8  T
  10    -32.0747940 -0.179057E-11  0.446E-06    3.67    4392.4  T
  11    -32.0747940 -0.568434E-13  0.173E-06    3.67   11351.3  T
     SCC iter.                  ...        0 min,  0.075 sec
     gradient                   ...        0 min,  0.002 sec
 * total energy  :   -31.5549367 Eh     change       -0.3985713E-04 Eh
   gradient norm :     0.0037175 Eh/α   predicted    -0.3761342E-04 (  -5.63%)
   displ. norm   :     0.1373514 α      lambda       -0.5022575E-04
   maximum displ.:     0.0974223 α      in ANC's #2, #4, #3, ...

........................................................................
.............................. CYCLE   19 ..............................
........................................................................

 iter      E             dE          RMSdq      gap      omega  full diag
   1    -32.0747126 -0.320747E+02  0.460E-02    3.67       0.0  T
   2    -32.0747130 -0.314696E-06  0.273E-02    3.67       1.0  T
   3    -32.0747128  0.121201E-06  0.443E-03    3.67       4.4  T
   4    -32.0747130 -0.184360E-06  0.107E-03    3.67      18.4  T
   5    -32.0747130 -0.381385E-08  0.587E-04    3.67      33.4  T
   6    -32.0747130 -0.504248E-08  0.274E-04    3.67      71.7  T
   7    -32.0747130 -0.165770E-09  0.725E-05    3.67     270.6  T
   8    -32.0747130 -0.301270E-11  0.244E-05    3.67     803.8  T
   9    -32.0747130 -0.681410E-11  0.993E-06    3.67    1974.6  T
  10    -32.0747130 -0.163425E-12  0.209E-06    3.67    9391.5  T
     SCC iter.                  ...        0 min,  0.073 sec
     gradient                   ...        0 min,  0.002 sec
 * total energy  :   -31.5549700 Eh     change       -0.3328197E-04 Eh
   gradient norm :     0.0029377 Eh/α   predicted    -0.2558845E-04 ( -23.12%)
   displ. norm   :     0.1260436 α      lambda       -0.4626459E-04
   maximum displ.:     0.0904026 α      in ANC's #2, #4, #9, ...

........................................................................
.............................. CYCLE   20 ..............................
........................................................................

 iter      E             dE          RMSdq      gap      omega  full diag
   1    -32.0758411 -0.320758E+02  0.404E-02    3.67       0.0  T
   2    -32.0758414 -0.224941E-06  0.238E-02    3.67       1.0  T
   3    -32.0758413  0.108203E-06  0.384E-03    3.67       5.1  T
   4    -32.0758414 -0.152106E-06  0.918E-04    3.67      21.4  T
   5    -32.0758414 -0.501141E-08  0.507E-04    3.67      38.7  T
   6    -32.0758414 -0.343098E-08  0.183E-04    3.67     106.9  T
   7    -32.0758414 -0.898694E-10  0.697E-05    3.67     281.5  T
   8    -32.0758414 -0.524381E-10  0.174E-05    3.67    1129.1  T
   9    -32.0758414 -0.311928E-11  0.646E-06    3.67    3036.6  T
  10    -32.0758414 -0.923706E-13  0.280E-06    3.67    7002.7  T
     SCC iter.                  ...        0 min,  0.079 sec
     gradient                   ...        0 min,  0.002 sec
 * total energy  :   -31.5550014 Eh     change       -0.3144383E-04 Eh
   gradient norm :     0.0026874 Eh/α   predicted    -0.2350014E-04 ( -25.26%)
   displ. norm   :     0.2200783 α      lambda       -0.4457441E-04
   maximum displ.:     0.1497967 α      in ANC's #2, #4, #1, ...
 * RMSD in coord.:     0.6895779 α      energy gain  -0.7806426E-02 Eh

generating ANC from model Hessian ...
Using Lindh-Hessian (1995)
 Shifting diagonal of input Hessian by   9.224497242802686E-003
 Lowest  eigenvalues of input Hessian
    0.000000    0.000000    0.000000    0.000000    0.000000    0.000000
    0.010000    0.010419    0.010791    0.011074    0.012041    0.012523
    0.015716    0.016790    0.018436    0.018892    0.021085    0.024372
 Highest eigenvalues
    1.362779    1.549400    1.577071    1.880781    1.986011    2.004023
 

........................................................................
.............................. CYCLE   21 ..............................
........................................................................

 iter      E             dE          RMSdq      gap      omega  full diag
   1    -32.0757838 -0.320758E+02  0.691E-02    3.67       0.0  T
   2    -32.0757842 -0.384533E-06  0.409E-02    3.67       1.0  T
   3    -32.0757841  0.438153E-07  0.437E-03    3.67       4.5  T
   4    -32.0757842 -0.132528E-06  0.123E-03    3.67      15.9  T
   5    -32.0757842 -0.385513E-08  0.730E-04    3.67      26.9  T
   6    -32.0757843 -0.597245E-08  0.320E-04    3.67      61.3  T
   7    -32.0757843 -0.232184E-09  0.746E-05    3.67     262.9  T
   8    -32.0757843 -0.397833E-10  0.306E-05    3.67     641.9  T
   9    -32.0757843 -0.299138E-11  0.177E-05    3.67    1106.7  T
  10    -32.0757843 -0.211742E-11  0.371E-06    3.67    5282.5  T
  11    -32.0757843 -0.710543E-14  0.129E-06    3.67   15216.1  T
     SCC iter.                  ...        0 min,  0.074 sec
     gradient                   ...        0 min,  0.002 sec
 * total energy  :   -31.5550355 Eh     change       -0.3406571E-04 Eh
   gradient norm :     0.0030715 Eh/α   predicted     0.0000000E+00 (-100.00%)
   displ. norm   :     0.0392434 α      lambda       -0.3567705E-04
   maximum displ.:     0.0207102 α      in ANC's #1, #6, #10, ...

........................................................................
.............................. CYCLE   22 ..............................
........................................................................

 iter      E             dE          RMSdq      gap      omega  full diag
   1    -32.0759710 -0.320760E+02  0.175E-02    3.68       0.0  T
   2    -32.0759710 -0.938510E-07  0.101E-02    3.68       1.9  T
   3    -32.0759710  0.319325E-07  0.237E-03    3.68       8.3  T
   4    -32.0759711 -0.434129E-07  0.599E-04    3.68      32.8  T
   5    -32.0759711 -0.270263E-08  0.293E-04    3.68      66.8  T
   6    -32.0759711 -0.147504E-08  0.119E-04    3.68     165.2  T
   7    -32.0759711 -0.602967E-10  0.399E-05    3.68     491.3  T
   8    -32.0759711 -0.151417E-10  0.112E-05    3.68    1749.4  T
   9    -32.0759711 -0.108002E-11  0.431E-06    3.68    4553.9  T
  10    -32.0759711 -0.568434E-13  0.172E-06    3.68   11404.9  T
     SCC iter.                  ...        0 min,  0.074 sec
     gradient                   ...        0 min,  0.002 sec
 * total energy  :   -31.5550636 Eh     change       -0.2815982E-04 Eh
   gradient norm :     0.0013223 Eh/α   predicted    -0.1787111E-04 ( -36.54%)
   displ. norm   :     0.1382514 α      lambda       -0.4643204E-04
   maximum displ.:     0.0741806 α      in ANC's #1, #6, #10, ...

........................................................................
.............................. CYCLE   23 ..............................
........................................................................

 iter      E             dE          RMSdq      gap      omega  full diag
   1    -32.0759265 -0.320759E+02  0.488E-02    3.68       0.0  T
   2    -32.0759272 -0.665693E-06  0.280E-02    3.68       1.0  T
   3    -32.0759271  0.977761E-07  0.585E-03    3.68       3.4  T
   4    -32.0759273 -0.172924E-06  0.145E-03    3.68      13.5  T
   5    -32.0759273 -0.120952E-07  0.689E-04    3.68      28.5  T
   6    -32.0759273 -0.872408E-08  0.279E-04    3.68      70.2  T
   7    -32.0759273 -0.507605E-09  0.911E-05    3.68     215.3  T
   8    -32.0759273 -0.505480E-10  0.343E-05    3.68     571.1  T
   9    -32.0759273 -0.739675E-11  0.114E-05    3.68    1713.3  T
  10    -32.0759273 -0.952127E-12  0.376E-06    3.68    5217.5  T
  11    -32.0759273 -0.568434E-13  0.164E-06    3.68   11970.2  T
     SCC iter.                  ...        0 min,  0.074 sec
     gradient                   ...        0 min,  0.002 sec
 * total energy  :   -31.5550962 Eh     change       -0.3254210E-04 Eh
   gradient norm :     0.0030845 Eh/α   predicted    -0.2341398E-04 ( -28.05%)
   displ. norm   :     0.0333222 α      lambda       -0.1575508E-04
   maximum displ.:     0.0217822 α      in ANC's #1, #5, #10, ...

........................................................................
.............................. CYCLE   24 ..............................
........................................................................

 iter      E             dE          RMSdq      gap      omega  full diag
   1    -32.0758749 -0.320759E+02  0.108E-02    3.68       0.0  T
   2    -32.0758749 -0.424827E-07  0.634E-03    3.68       3.1  T
   3    -32.0758749  0.268241E-08  0.120E-03    3.68      16.4  T
   4    -32.0758749 -0.734236E-08  0.423E-04    3.68      46.4  T
   5    -32.0758749 -0.515968E-09  0.212E-04    3.68      92.7  T
   6    -32.0758749 -0.752159E-09  0.750E-05    3.68     261.4  T
   7    -32.0758749 -0.201510E-10  0.330E-05    3.68     594.6  T
   8    -32.0758749 -0.115818E-11  0.752E-06    3.68    2608.5  T
   9    -32.0758749 -0.788702E-12  0.260E-06    3.68    7540.0  T
     SCC iter.                  ...        0 min,  0.073 sec
     gradient                   ...        0 min,  0.002 sec
 * total energy  :   -31.5551103 Eh     change       -0.1411849E-04 Eh
   gradient norm :     0.0023016 Eh/α   predicted    -0.7888580E-05 ( -44.13%)
   displ. norm   :     0.1382653 α      lambda       -0.5543908E-04
   maximum displ.:     0.0861345 α      in ANC's #1, #5, #10, ...

........................................................................
.............................. CYCLE   25 ..............................
........................................................................

 iter      E             dE          RMSdq      gap      omega  full diag
   1    -32.0756902 -0.320757E+02  0.406E-02    3.67       0.0  T
   2    -32.0756904 -0.245812E-06  0.246E-02    3.67       1.0  T
   3    -32.0756903  0.113754E-06  0.417E-03    3.67       4.7  T
   4    -32.0756905 -0.161984E-06  0.941E-04    3.67      20.8  T
   5    -32.0756905 -0.249065E-08  0.645E-04    3.67      30.4  T
   6    -32.0756905 -0.335568E-08  0.224E-04    3.67      87.7  T
   7    -32.0756905 -0.232831E-09  0.412E-05    3.67     476.4  T
   8    -32.0756905 -0.112053E-10  0.225E-05    3.67     870.5  T
   9    -32.0756905 -0.418510E-11  0.788E-06    3.67    2488.7  T
  10    -32.0756905 -0.781597E-13  0.337E-06    3.67    5825.8  T
     SCC iter.                  ...        0 min,  0.074 sec
     gradient                   ...        0 min,  0.002 sec
 * total energy  :   -31.5551487 Eh     change       -0.3838769E-04 Eh
   gradient norm :     0.0008683 Eh/α   predicted    -0.2824953E-04 ( -26.41%)
   displ. norm   :     0.1996270 α      lambda       -0.2573704E-04
   maximum displ.:     0.1290515 α      in ANC's #1, #5, #10, ...

........................................................................
.............................. CYCLE   26 ..............................
........................................................................

 iter      E             dE          RMSdq      gap      omega  full diag
   1    -32.0750033 -0.320750E+02  0.565E-02    3.67       0.0  T
   2    -32.0750036 -0.272348E-06  0.335E-02    3.67       1.0  T
   3    -32.0750035  0.380881E-07  0.320E-03    3.67       6.1  T
   4    -32.0750036 -0.100659E-06  0.122E-03    3.67      16.1  T
   5    -32.0750036 -0.995739E-08  0.495E-04    3.67      39.6  T
   6    -32.0750036 -0.243156E-08  0.214E-04    3.67      91.4  T
   7    -32.0750036 -0.720561E-10  0.540E-05    3.67     363.0  T
   8    -32.0750036 -0.633094E-11  0.176E-05    3.67    1116.9  T
   9    -32.0750036 -0.267164E-11  0.641E-06    3.67    3057.2  T
  10    -32.0750036 -0.667910E-12  0.308E-06    3.67    6368.4  T
     SCC iter.                  ...        0 min,  0.074 sec
     gradient                   ...        0 min,  0.002 sec
 * total energy  :   -31.5551693 Eh     change       -0.2058268E-04 Eh
   gradient norm :     0.0022382 Eh/α   predicted    -0.1309716E-04 ( -36.37%)
   displ. norm   :     0.0372926 α      lambda       -0.1436505E-04
   maximum displ.:     0.0303994 α      in ANC's #1, #7, #10, ...

........................................................................
.............................. CYCLE   27 ..............................
........................................................................

 iter      E             dE          RMSdq      gap      omega  full diag
   1    -32.0757209 -0.320757E+02  0.142E-02    3.67       0.0  T
   2    -32.0757210 -0.847946E-07  0.822E-03    3.67       2.4  T
   3    -32.0757210 -0.676316E-09  0.135E-03    3.67      14.5  T
   4    -32.0757210 -0.799638E-08  0.534E-04    3.67      36.7  T
   5    -32.0757210 -0.997538E-09  0.227E-04    3.67      86.6  T
   6    -32.0757210 -0.344841E-09  0.101E-04    3.67     194.3  T
   7    -32.0757210 -0.941469E-10  0.372E-05    3.67     527.9  T
   8    -32.0757210 -0.758149E-11  0.117E-05    3.67    1681.4  T
   9    -32.0757210 -0.390799E-12  0.562E-06    3.67    3486.6  T
  10    -32.0757210 -0.135003E-12  0.167E-06    3.67   11731.7  T
     SCC iter.                  ...        0 min,  0.074 sec
     gradient                   ...        0 min,  0.002 sec
 * total energy  :   -31.5551802 Eh     change       -0.1098357E-04 Eh
   gradient norm :     0.0011893 Eh/α   predicted    -0.7198177E-05 ( -34.46%)
   displ. norm   :     0.0889080 α      lambda       -0.1243866E-04
   maximum displ.:     0.0733503 α      in ANC's #1, #10, #4, ...

........................................................................
.............................. CYCLE   28 ..............................
........................................................................

 iter      E             dE          RMSdq      gap      omega  full diag
   1    -32.0765648 -0.320766E+02  0.297E-02    3.68       0.0  T
   2    -32.0765650 -0.185341E-06  0.174E-02    3.68       1.1  T
   3    -32.0765650  0.113255E-07  0.244E-03    3.67       8.1  T
   4    -32.0765651 -0.377596E-07  0.818E-04    3.67      24.0  T
   5    -32.0765651 -0.256971E-08  0.317E-04    3.67      61.9  T
   6    -32.0765651 -0.120834E-08  0.155E-04    3.67     126.3  T
   7    -32.0765651 -0.209901E-09  0.470E-05    3.67     417.0  T
   8    -32.0765651 -0.142109E-10  0.179E-05    3.67    1094.2  T
   9    -32.0765651 -0.108713E-11  0.749E-06    3.67    2619.2  T
  10    -32.0765651 -0.213163E-12  0.257E-06    3.67    7628.9  T
     SCC iter.                  ...        0 min,  0.075 sec
     gradient                   ...        0 min,  0.002 sec
 * total energy  :   -31.5551921 Eh     change       -0.1187405E-04 Eh
   gradient norm :     0.0010224 Eh/α   predicted    -0.6242741E-05 ( -47.43%)
   displ. norm   :     0.0562856 α      lambda       -0.5402263E-05
   maximum displ.:     0.0473850 α      in ANC's #1, #4, #5, ...

........................................................................
.............................. CYCLE   29 ..............................
........................................................................

 iter      E             dE          RMSdq      gap      omega  full diag
   1    -32.0764173 -0.320764E+02  0.172E-02    3.68       0.0  T
   2    -32.0764173 -0.283064E-07  0.101E-02    3.68       1.9  T
   3    -32.0764173 -0.136787E-08  0.939E-04    3.68      20.9  T
   4    -32.0764173 -0.435482E-08  0.277E-04    3.68      70.9  T
   5    -32.0764173 -0.164967E-09  0.130E-04    3.68     150.7  T
   6    -32.0764173 -0.113268E-09  0.572E-05    3.68     342.7  T
   7    -32.0764173 -0.251532E-11  0.204E-05    3.68     960.2  T
   8    -32.0764173 -0.661515E-11  0.424E-06    3.68    4622.4  T
   9    -32.0764173 -0.710543E-13  0.177E-06    3.68   11090.1  T
     SCC iter.                  ...        0 min,  0.073 sec
     gradient                   ...        0 min,  0.002 sec
 * total energy  :   -31.5551996 Eh     change       -0.7480241E-05 Eh
   gradient norm :     0.0008762 Eh/α   predicted    -0.2706543E-05 ( -63.82%)
   displ. norm   :     0.0453999 α      lambda       -0.6198477E-05
   maximum displ.:     0.0348696 α      in ANC's #1, #4, #3, ...

........................................................................
.............................. CYCLE   30 ..............................
........................................................................

 iter      E             dE          RMSdq      gap      omega  full diag
   1    -32.0762525 -0.320763E+02  0.125E-02    3.68       0.0  T
   2    -32.0762525 -0.140692E-07  0.736E-03    3.68       2.7  T
   3    -32.0762525  0.118784E-08  0.829E-04    3.68      23.7  T
   4    -32.0762525 -0.461558E-08  0.207E-04    3.68      94.7  T
   5    -32.0762525 -0.732854E-10  0.128E-04    3.68     153.0  T
   6    -32.0762525 -0.138485E-09  0.626E-05    3.68     313.1  T
   7    -32.0762525 -0.122498E-10  0.158E-05    3.68    1243.8  T
   8    -32.0762525 -0.152056E-11  0.464E-06    3.68    4222.6  T
   9    -32.0762525 -0.369482E-12  0.177E-06    3.68   11051.0  T
     SCC iter.                  ...        0 min,  0.074 sec
     gradient                   ...        0 min,  0.002 sec
 * total energy  :   -31.5552081 Eh     change       -0.8470340E-05 Eh
   gradient norm :     0.0005556 Eh/α   predicted    -0.3102888E-05 ( -63.37%)
   displ. norm   :     0.0749302 α      lambda       -0.9121366E-05
   maximum displ.:     0.0517603 α      in ANC's #1, #4, #10, ...

........................................................................
.............................. CYCLE   31 ..............................
........................................................................

 iter      E             dE          RMSdq      gap      omega  full diag
   1    -32.0760390 -0.320760E+02  0.197E-02    3.68       0.0  T
   2    -32.0760390 -0.329299E-07  0.116E-02    3.68       1.7  T
   3    -32.0760390 -0.177091E-08  0.110E-03    3.68      17.8  T
   4    -32.0760390 -0.663916E-08  0.324E-04    3.68      60.5  T
   5    -32.0760390 -0.182013E-09  0.142E-04    3.68     137.7  T
   6    -32.0760390 -0.289333E-10  0.542E-05    3.68     362.0  T
   7    -32.0760390 -0.727596E-11  0.191E-05    3.68    1028.2  T
   8    -32.0760390 -0.570566E-11  0.508E-06    3.68    3860.6  T
   9    -32.0760390 -0.270006E-12  0.295E-06    3.68    6648.3  T
     SCC iter.                  ...        0 min,  0.073 sec
     gradient                   ...        0 min,  0.002 sec
 * total energy  :   -31.5552196 Eh     change       -0.1157656E-04 Eh
   gradient norm :     0.0004229 Eh/α   predicted    -0.4572260E-05 ( -60.50%)
   displ. norm   :     0.0841205 α      lambda       -0.7989163E-05
   maximum displ.:     0.0603680 α      in ANC's #1, #4, #10, ...

........................................................................
.............................. CYCLE   32 ..............................
........................................................................

 iter      E             dE          RMSdq      gap      omega  full diag
   1    -32.0759273 -0.320759E+02  0.231E-02    3.68       0.0  T
   2    -32.0759273 -0.385171E-07  0.136E-02    3.68       1.4  T
   3    -32.0759273 -0.477606E-09  0.117E-03    3.68      16.8  T
   4    -32.0759273 -0.929997E-08  0.409E-04    3.68      48.0  T
   5    -32.0759273 -0.672927E-09  0.192E-04    3.68     102.3  T
   6    -32.0759273 -0.415447E-09  0.103E-04    3.68     190.8  T
   7    -32.0759273 -0.332463E-10  0.202E-05    3.68     970.2  T
   8    -32.0759273 -0.100187E-11  0.746E-06    3.68    2627.5  T
   9    -32.0759273 -0.554223E-12  0.313E-06    3.68    6272.5  T
     SCC iter.                  ...        0 min,  0.074 sec
     gradient                   ...        0 min,  0.002 sec
 * total energy  :   -31.5552295 Eh     change       -0.9822546E-05 Eh
   gradient norm :     0.0005497 Eh/α   predicted    -0.4008112E-05 ( -59.19%)
   displ. norm   :     0.0589358 α      lambda       -0.5054783E-05
   maximum displ.:     0.0476263 α      in ANC's #1, #4, #10, ...

........................................................................
.............................. CYCLE   33 ..............................
........................................................................

 iter      E             dE          RMSdq      gap      omega  full diag
   1    -32.0759300 -0.320759E+02  0.186E-02    3.68       0.0  T
   2    -32.0759300 -0.313883E-07  0.109E-02    3.68       1.8  T
   3    -32.0759300 -0.116180E-08  0.111E-03    3.68      17.7  T
   4    -32.0759301 -0.608613E-08  0.364E-04    3.68      53.8  T
   5    -32.0759301 -0.337330E-09  0.140E-04    3.68     140.3  T
   6    -32.0759301 -0.144205E-09  0.709E-05    3.68     276.5  T
   7    -32.0759301 -0.162430E-10  0.136E-05    3.68    1441.6  T
   8    -32.0759301 -0.191847E-12  0.545E-06    3.68    3597.1  T
   9    -32.0759301 -0.270006E-12  0.243E-06    3.68    8059.5  T
     SCC iter.                  ...        0 min,  0.074 sec
     gradient                   ...        0 min,  0.002 sec
 * total energy  :   -31.5552362 Eh     change       -0.6740857E-05 Eh
   gradient norm :     0.0005178 Eh/α   predicted    -0.2534230E-05 ( -62.40%)
   displ. norm   :     0.0416995 α      lambda       -0.4206166E-05
   maximum displ.:     0.0373544 α      in ANC's #1, #10, #3, ...

........................................................................
.............................. CYCLE   34 ..............................
........................................................................

 iter      E             dE          RMSdq      gap      omega  full diag
   1    -32.0760517 -0.320761E+02  0.148E-02    3.68       0.0  T
   2    -32.0760518 -0.176044E-07  0.874E-03    3.68       2.2  T
   3    -32.0760517  0.238387E-08  0.921E-04    3.68      21.3  T
   4    -32.0760518 -0.622508E-08  0.279E-04    3.68      70.2  T
   5    -32.0760518 -0.432159E-09  0.125E-04    3.68     157.0  T
   6    -32.0760518 -0.150962E-09  0.643E-05    3.68     305.1  T
   7    -32.0760518 -0.170957E-10  0.127E-05    3.68    1539.1  T
   8    -32.0760518 -0.106581E-11  0.572E-06    3.68    3430.4  T
   9    -32.0760518 -0.220268E-12  0.290E-06    3.68    6770.5  T
     SCC iter.                  ...        0 min,  0.075 sec
     gradient                   ...        0 min,  0.002 sec
 * total energy  :   -31.5552422 Eh     change       -0.5982042E-05 Eh
   gradient norm :     0.0003538 Eh/α   predicted    -0.2107637E-05 ( -64.77%)
   displ. norm   :     0.0430566 α      lambda       -0.4741800E-05
   maximum displ.:     0.0383100 α      in ANC's #1, #2, #3, ...

........................................................................
.............................. CYCLE   35 ..............................
........................................................................

 iter      E             dE          RMSdq      gap      omega  full diag
   1    -32.0761922 -0.320762E+02  0.160E-02    3.68       0.0  T
   2    -32.0761922 -0.229572E-07  0.944E-03    3.68       2.1  T
   3    -32.0761922  0.204705E-08  0.945E-04    3.68      20.8  T
   4    -32.0761922 -0.653129E-08  0.307E-04    3.68      63.9  T
   5    -32.0761922 -0.682221E-09  0.132E-04    3.68     148.9  T
   6    -32.0761922 -0.139231E-09  0.682E-05    3.68     287.7  T
   7    -32.0761922 -0.195755E-10  0.158E-05    3.68    1242.7  T
   8    -32.0761922 -0.114397E-11  0.630E-06    3.68    3114.5  T
   9    -32.0761922 -0.433431E-12  0.322E-06    3.68    6098.4  T
     SCC iter.                  ...        0 min,  0.074 sec
     gradient                   ...        0 min,  0.002 sec
 * total energy  :   -31.5552489 Eh     change       -0.6664041E-05 Eh
   gradient norm :     0.0002424 Eh/α   predicted    -0.2374179E-05 ( -64.37%)
   displ. norm   :     0.0499411 α      lambda       -0.5081023E-05
   maximum displ.:     0.0426092 α      in ANC's #1, #2, #4, ...

........................................................................
.............................. CYCLE   36 ..............................
........................................................................

 iter      E             dE          RMSdq      gap      omega  full diag
   1    -32.0762512 -0.320763E+02  0.186E-02    3.68       0.0  T
   2    -32.0762512 -0.303532E-07  0.109E-02    3.68       1.8  T
   3    -32.0762512  0.503260E-08  0.121E-03    3.68      16.2  T
   4    -32.0762512 -0.110096E-07  0.373E-04    3.68      52.6  T
   5    -32.0762512 -0.955310E-09  0.156E-04    3.68     125.3  T
   6    -32.0762512 -0.273452E-09  0.712E-05    3.68     275.4  T
   7    -32.0762512 -0.202931E-10  0.164E-05    3.68    1193.3  T
   8    -32.0762512 -0.115818E-11  0.783E-06    3.68    2504.2  T
   9    -32.0762512 -0.781597E-12  0.281E-06    3.68    6972.8  T
     SCC iter.                  ...        0 min,  0.077 sec
     gradient                   ...        0 min,  0.002 sec
 * total energy  :   -31.5552558 Eh     change       -0.6969978E-05 Eh
   gradient norm :     0.0002728 Eh/α   predicted    -0.2544280E-05 ( -63.50%)
   displ. norm   :     0.0482732 α      lambda       -0.4434305E-05
   maximum displ.:     0.0417433 α      in ANC's #1, #2, #4, ...

........................................................................
.............................. CYCLE   37 ..............................
........................................................................

 iter      E             dE          RMSdq      gap      omega  full diag
   1    -32.0762894 -0.320763E+02  0.179E-02    3.68       0.0  T
   2    -32.0762894 -0.217866E-07  0.105E-02    3.68       1.9  T
   3    -32.0762894  0.336485E-08  0.996E-04    3.68      19.7  T
   4    -32.0762894 -0.881628E-08  0.309E-04    3.68      63.6  T
   5    -32.0762894 -0.731895E-09  0.136E-04    3.68     143.7  T
   6    -32.0762894 -0.176236E-09  0.684E-05    3.68     286.9  T
   7    -32.0762894 -0.168185E-10  0.164E-05    3.68    1196.7  T
   8    -32.0762894 -0.146372E-11  0.634E-06    3.68    3094.2  T
   9    -32.0762894 -0.738964E-12  0.243E-06    3.68    8068.1  T
     SCC iter.                  ...        0 min,  0.074 sec
     gradient                   ...        0 min,  0.002 sec
 * total energy  :   -31.5552619 Eh     change       -0.6092841E-05 Eh
   gradient norm :     0.0002740 Eh/α   predicted    -0.2220390E-05 ( -63.56%)
   displ. norm   :     0.0394640 α      lambda       -0.3345776E-05
   maximum displ.:     0.0354837 α      in ANC's #1, #2, #3, ...

........................................................................
.............................. CYCLE   38 ..............................
........................................................................

 iter      E             dE          RMSdq      gap      omega  full diag
   1    -32.0762677 -0.320763E+02  0.147E-02    3.68       0.0  T
   2    -32.0762677 -0.141021E-07  0.865E-03    3.68       2.3  T
   3    -32.0762677  0.160700E-08  0.849E-04    3.68      23.1  T
   4    -32.0762677 -0.523873E-08  0.232E-04    3.68      84.7  T
   5    -32.0762677 -0.240490E-09  0.111E-04    3.68     176.4  T
   6    -32.0762677 -0.148574E-09  0.518E-05    3.68     378.8  T
   7    -32.0762677 -0.660805E-11  0.901E-06    3.68    2177.1  T
   8    -32.0762677 -0.845546E-12  0.431E-06    3.68    4548.4  T
     SCC iter.                  ...        0 min,  0.083 sec
     gradient                   ...        0 min,  0.002 sec
 * total energy  :   -31.5552667 Eh     change       -0.4765204E-05 Eh
   gradient norm :     0.0002147 Eh/α   predicted    -0.1676528E-05 ( -64.82%)
   displ. norm   :     0.0304211 α      lambda       -0.2602098E-05
   maximum displ.:     0.0283795 α      in ANC's #1, #2, #10, ...

........................................................................
.............................. CYCLE   39 ..............................
........................................................................

 iter      E             dE          RMSdq      gap      omega  full diag
   1    -32.0762488 -0.320762E+02  0.112E-02    3.68       0.0  T
   2    -32.0762488 -0.689425E-08  0.661E-03    3.68       3.0  T
   3    -32.0762488  0.732179E-09  0.610E-04    3.68      32.1  T
   4    -32.0762488 -0.287579E-08  0.157E-04    3.68     124.9  T
   5    -32.0762488 -0.504699E-10  0.868E-05    3.68     226.1  T
   6    -32.0762488 -0.797513E-10  0.394E-05    3.68     498.0  T
   7    -32.0762488 -0.364508E-11  0.665E-06    3.68    2949.4  T
   8    -32.0762488 -0.603961E-12  0.326E-06    3.68    6018.5  T
     SCC iter.                  ...        0 min,  0.076 sec
     gradient                   ...        0 min,  0.002 sec
 * total energy  :   -31.5552705 Eh     change       -0.3772793E-05 Eh
   gradient norm :     0.0001830 Eh/α   predicted    -0.1304080E-05 ( -65.43%)
   displ. norm   :     0.0274272 α      lambda       -0.2414965E-05
   maximum displ.:     0.0256828 α      in ANC's #1, #4, #2, ...

........................................................................
.............................. CYCLE   40 ..............................
........................................................................

 iter      E             dE          RMSdq      gap      omega  full diag
   1    -32.0762401 -0.320762E+02  0.970E-03    3.68       0.0  T
   2    -32.0762401 -0.546822E-08  0.570E-03    3.68       3.4  T
   3    -32.0762401  0.962643E-10  0.498E-04    3.68      39.3  T
   4    -32.0762401 -0.160664E-08  0.143E-04    3.68     137.5  T
   5    -32.0762401 -0.666560E-10  0.731E-05    3.68     268.1  T
   6    -32.0762401 -0.641478E-10  0.371E-05    3.68     528.9  T
   7    -32.0762401 -0.383693E-11  0.507E-06    3.68    3870.8  T
   8    -32.0762401 -0.248690E-12  0.248E-06    3.68    7918.4  T
     SCC iter.                  ...        0 min,  0.073 sec
     gradient                   ...        0 min,  0.002 sec
 * total energy  :   -31.5552740 Eh     change       -0.3560310E-05 Eh
   gradient norm :     0.0001677 Eh/α   predicted    -0.1210370E-05 ( -66.00%)
   displ. norm   :     0.0294752 α      lambda       -0.2595368E-05
   maximum displ.:     0.0267089 α      in ANC's #1, #4, #5, ...

........................................................................
.............................. CYCLE   41 ..............................
........................................................................

 iter      E             dE          RMSdq      gap      omega  full diag
   1    -32.0762148 -0.320762E+02  0.981E-03    3.68       0.0  T
   2    -32.0762148 -0.616097E-08  0.576E-03    3.68       3.4  T
   3    -32.0762148 -0.554422E-09  0.435E-04    3.68      45.1  T
   4    -32.0762148 -0.948830E-09  0.142E-04    3.68     138.2  T
   5    -32.0762148 -0.919513E-10  0.688E-05    3.68     284.9  T
   6    -32.0762148 -0.314131E-10  0.345E-05    3.68     568.9  T
   7    -32.0762148 -0.284928E-11  0.541E-06    3.68    3622.1  T
   8    -32.0762148 -0.142109E-12  0.221E-06    3.68    8875.1  T
     SCC iter.                  ...        0 min,  0.073 sec
     gradient                   ...        0 min,  0.002 sec
 * total energy  :   -31.5552778 Eh     change       -0.3818946E-05 Eh
   gradient norm :     0.0001734 Eh/α   predicted    -0.1300117E-05 ( -65.96%)
   displ. norm   :     0.0344184 α      lambda       -0.2980270E-05
   maximum displ.:     0.0303493 α      in ANC's #1, #4, #5, ...

........................................................................
.............................. CYCLE   42 ..............................
........................................................................

 iter      E             dE          RMSdq      gap      omega  full diag
   1    -32.0761968 -0.320762E+02  0.113E-02    3.68       0.0  T
   2    -32.0761969 -0.744770E-08  0.665E-03    3.68       2.9  T
   3    -32.0761969 -0.175554E-09  0.613E-04    3.68      32.0  T
   4    -32.0761969 -0.198816E-08  0.172E-04    3.68     113.9  T
   5    -32.0761969 -0.136140E-10  0.851E-05    3.68     230.4  T
   6    -32.0761969 -0.592095E-10  0.442E-05    3.68     443.8  T
   7    -32.0761969 -0.932943E-11  0.633E-06    3.68    3096.6  T
   8    -32.0761969 -0.163425E-12  0.302E-06    3.68    6504.0  T
     SCC iter.                  ...        0 min,  0.073 sec
     gradient                   ...        0 min,  0.002 sec
 * total energy  :   -31.5552822 Eh     change       -0.4325096E-05 Eh
   gradient norm :     0.0001861 Eh/α   predicted    -0.1492709E-05 ( -65.49%)
   displ. norm   :     0.0401021 α      lambda       -0.3320747E-05
   maximum displ.:     0.0349400 α      in ANC's #1, #4, #5, ...
 * RMSD in coord.:     0.2253709 α      energy gain  -0.2807559E-03 Eh

generating ANC from model Hessian ...
Using Lindh-Hessian (1995)
 Shifting diagonal of input Hessian by   9.207736470678747E-003
 Lowest  eigenvalues of input Hessian
    0.000000    0.000000    0.000000    0.000000    0.000000    0.000000
    0.010000    0.010334    0.010800    0.011069    0.011934    0.012591
    0.015577    0.016782    0.018509    0.018856    0.021573    0.024336
 Highest eigenvalues
    1.364199    1.551053    1.577815    1.882591    1.988344    2.005866
 

........................................................................
.............................. CYCLE   43 ..............................
........................................................................

 iter      E             dE          RMSdq      gap      omega  full diag
   1    -32.0761833 -0.320762E+02  0.129E-02    3.68       0.0  T
   2    -32.0761833 -0.108314E-07  0.755E-03    3.68       2.6  T
   3    -32.0761833 -0.907711E-09  0.532E-04    3.68      36.8  T
   4    -32.0761833 -0.149493E-08  0.203E-04    3.68      96.4  T
   5    -32.0761833 -0.336776E-09  0.974E-05    3.68     201.3  T
   6    -32.0761833 -0.900471E-10  0.461E-05    3.68     425.4  T
   7    -32.0761833 -0.374456E-11  0.894E-06    3.68    2192.8  T
   8    -32.0761833 -0.675016E-12  0.378E-06    3.68    5190.5  T
     SCC iter.                  ...        0 min,  0.077 sec
     gradient                   ...        0 min,  0.002 sec
 * total energy  :   -31.5552869 Eh     change       -0.4787674E-05 Eh
   gradient norm :     0.0001930 Eh/α   predicted     0.0000000E+00 (-100.00%)
   displ. norm   :     0.0196715 α      lambda       -0.6071715E-07
   maximum displ.:     0.0193310 α      in ANC's #1, #5, #10, ...

........................................................................
.............................. CYCLE   44 ..............................
........................................................................

 iter      E             dE          RMSdq      gap      omega  full diag
   1    -32.0762647 -0.320763E+02  0.800E-03    3.68       0.0  T
   2    -32.0762647 -0.602439E-08  0.471E-03    3.68       4.2  T
   3    -32.0762647  0.457661E-09  0.523E-04    3.68      37.5  T
   4    -32.0762647 -0.164108E-08  0.163E-04    3.68     120.0  T
   5    -32.0762647 -0.978062E-10  0.727E-05    3.68     269.9  T
   6    -32.0762647 -0.487503E-10  0.422E-05    3.68     465.0  T
   7    -32.0762647 -0.122000E-10  0.810E-06    3.68    2422.5  T
   8    -32.0762647 -0.291323E-12  0.254E-06    3.68    7709.3  T
     SCC iter.                  ...        0 min,  0.073 sec
     gradient                   ...        0 min,  0.002 sec
 * total energy  :   -31.5552895 Eh     change       -0.2571516E-05 Eh
   gradient norm :     0.0001650 Eh/α   predicted    -0.9016034E-06 ( -64.94%)
   displ. norm   :     0.0213229 α      lambda       -0.1848342E-05
   maximum displ.:     0.0203087 α      in ANC's #1, #5, #10, ...

........................................................................
.............................. CYCLE   45 ..............................
........................................................................

 iter      E             dE          RMSdq      gap      omega  full diag
   1    -32.0762883 -0.320763E+02  0.833E-03    3.68       0.0  T
   2    -32.0762883 -0.422756E-08  0.491E-03    3.68       4.0  T
   3    -32.0762883  0.214285E-09  0.417E-04    3.68      47.1  T
   4    -32.0762883 -0.130338E-08  0.117E-04    3.68     168.2  T
   5    -32.0762883 -0.591029E-10  0.640E-05    3.68     306.5  T
   6    -32.0762883 -0.326992E-10  0.299E-05    3.68     655.0  T
   7    -32.0762883 -0.202505E-11  0.627E-06    3.68    3127.0  T
   8    -32.0762883 -0.710543E-13  0.225E-06    3.68    8723.1  T
     SCC iter.                  ...        0 min,  0.073 sec
     gradient                   ...        0 min,  0.002 sec
 * total energy  :   -31.5552922 Eh     change       -0.2673234E-05 Eh
   gradient norm :     0.0001851 Eh/α   predicted    -0.9249351E-06 ( -65.40%)
   displ. norm   :     0.0230395 α      lambda       -0.1915959E-05
   maximum displ.:     0.0217514 α      in ANC's #1, #5, #10, ...

........................................................................
.............................. CYCLE   46 ..............................
........................................................................

 iter      E             dE          RMSdq      gap      omega  full diag
   1    -32.0762333 -0.320762E+02  0.888E-03    3.68       0.0  T
   2    -32.0762333 -0.434050E-08  0.522E-03    3.68       3.8  T
   3    -32.0762333  0.292147E-09  0.426E-04    3.68      46.0  T
   4    -32.0762333 -0.148404E-08  0.136E-04    3.68     144.4  T
   5    -32.0762333 -0.104052E-09  0.592E-05    3.68     331.0  T
   6    -32.0762333 -0.359037E-10  0.301E-05    3.68     651.0  T
   7    -32.0762333 -0.175504E-11  0.449E-06    3.68    4367.5  T
   8    -32.0762333 -0.142109E-12  0.255E-06    3.68    7678.6  T
     SCC iter.                  ...        0 min,  0.073 sec
     gradient                   ...        0 min,  0.002 sec
 * total energy  :   -31.5552950 Eh     change       -0.2781936E-05 Eh
   gradient norm :     0.0001396 Eh/α   predicted    -0.9623688E-06 ( -65.41%)
   displ. norm   :     0.0236187 α      lambda       -0.1895717E-05
   maximum displ.:     0.0222204 α      in ANC's #1, #5, #4, ...

........................................................................
.............................. CYCLE   47 ..............................
........................................................................

 iter      E             dE          RMSdq      gap      omega  full diag
   1    -32.0762226 -0.320762E+02  0.895E-03    3.68       0.0  T
   2    -32.0762226 -0.443028E-08  0.525E-03    3.68       3.7  T
   3    -32.0762226 -0.142570E-09  0.385E-04    3.68      51.0  T
   4    -32.0762226 -0.101267E-08  0.138E-04    3.68     142.6  T
   5    -32.0762226 -0.117815E-09  0.603E-05    3.68     325.4  T
   6    -32.0762226 -0.320881E-10  0.293E-05    3.68     668.6  T
   7    -32.0762226 -0.169820E-11  0.452E-06    3.68    4339.3  T
   8    -32.0762226 -0.142109E-13  0.186E-06    3.68   10519.1  T
     SCC iter.                  ...        0 min,  0.073 sec
     gradient                   ...        0 min,  0.002 sec
 * total energy  :   -31.5552977 Eh     change       -0.2776837E-05 Eh
   gradient norm :     0.0001351 Eh/α   predicted    -0.9494425E-06 ( -65.81%)
   displ. norm   :     0.0238644 α      lambda       -0.1881546E-05
   maximum displ.:     0.0223270 α      in ANC's #1, #4, #5, ...

........................................................................
.............................. CYCLE   48 ..............................
........................................................................

 iter      E             dE          RMSdq      gap      omega  full diag
   1    -32.0762237 -0.320762E+02  0.879E-03    3.68       0.0  T
   2    -32.0762237 -0.445977E-08  0.516E-03    3.68       3.8  T
   3    -32.0762237 -0.126533E-09  0.419E-04    3.68      46.8  T
   4    -32.0762237 -0.102386E-08  0.132E-04    3.68     148.5  T
   5    -32.0762237 -0.713456E-10  0.648E-05    3.68     302.7  T
   6    -32.0762237 -0.396838E-10  0.334E-05    3.68     586.4  T
   7    -32.0762237 -0.287770E-11  0.480E-06    3.68    4087.5  T
   8    -32.0762237 -0.241585E-12  0.252E-06    3.68    7797.4  T
     SCC iter.                  ...        0 min,  0.073 sec
     gradient                   ...        0 min,  0.002 sec
 * total energy  :   -31.5553005 Eh     change       -0.2769941E-05 Eh
   gradient norm :     0.0001365 Eh/α   predicted    -0.9445573E-06 ( -65.90%)
   displ. norm   :     0.0240333 α      lambda       -0.1873682E-05
   maximum displ.:     0.0223446 α      in ANC's #1, #4, #5, ...

........................................................................
.............................. CYCLE   49 ..............................
........................................................................

 iter      E             dE          RMSdq      gap      omega  full diag
   1    -32.0762338 -0.320762E+02  0.879E-03    3.68       0.0  T
[...]
         :: add. restraining           0.000000000000 Eh    ::
         :: total charge               0.000000000000 e     ::
         :::::::::::::::::::::::::::::::::::::::::::::::::::::

           ------------------------------------------------- 
          |                Numerical Hessian                |
           ------------------------------------------------- 
step length          :   0.00500
SCC accuracy         :   0.30000
Hessian scale factor :   1.00000
frozen atoms in %    :   0.00000    0
RMS gradient         :   0.00003
estimated CPU  time      1.14 min
estimated wall time      0.14 min

writing file <hessian>.

 projected vibrational frequencies (cm⁻¹)
eigval :       -0.00    -0.00    -0.00     0.00     0.00     0.00
eigval :       23.41    54.58    72.05    94.23   144.07   167.97
eigval :      203.28   215.91   224.36   265.56   314.65   328.67
eigval :      363.16   425.37   450.77   586.03   655.61   660.21
eigval :      686.03   702.04   739.20   754.40   778.04   874.76
eigval :      898.87   926.59   932.72   968.74   974.87   997.85
eigval :     1013.14  1016.92  1071.43  1076.75  1083.11  1117.53
eigval :     1121.35  1181.65  1199.10  1220.33  1225.48  1250.41
eigval :     1255.59  1278.10  1315.61  1409.31  1411.45  1423.41
eigval :     1446.27  1451.32  1458.93  1497.31  1498.55  1501.88
eigval :     1502.26  1579.92  1589.64  2928.89  2934.30  2946.61
eigval :     2949.75  3013.14  3014.20  3020.37  3026.75  3029.61
eigval :     3033.71  3063.40  3063.95  3072.17  3077.54  3087.95
           -------------------------------------------------
          |                Property Printout                |
           -------------------------------------------------

    * Orbital Energies and Occupations

         #    Occupation            Energy/Eh            Energy/eV
      -------------------------------------------------------------
         1        2.0000           -0.6578814             -17.9019
       ...           ...                  ...                  ...
        18        2.0000           -0.4773614             -12.9897
        19        2.0000           -0.4745161             -12.9122
        20        2.0000           -0.4630299             -12.5997
        21        2.0000           -0.4620997             -12.5744
        22        2.0000           -0.4534453             -12.3389
        23        2.0000           -0.4450388             -12.1101
        24        2.0000           -0.4376535             -11.9092
        25        2.0000           -0.4231401             -11.5142
        26        2.0000           -0.4184196             -11.3858
        27        2.0000           -0.4046782             -11.0119
        28        2.0000           -0.4043350             -11.0025
        29        2.0000           -0.3967834             -10.7970
        30        2.0000           -0.3669622              -9.9856 (HOMO)
        31                         -0.2331476              -6.3443 (LUMO)
        32                         -0.2229320              -6.0663
        33                         -0.1564270              -4.2566
        34                         -0.1499081              -4.0792
        35                         -0.0930409              -2.5318
        36                          0.0052064               0.1417
        37                          0.0555105               1.5105
        38                          0.0885563               2.4097
        39                          0.0952102               2.5908
        40                          0.1354480               3.6857
        41                          0.1378618               3.7514
       ...                                ...                  ...
        64                          0.7864376              21.4001
      -------------------------------------------------------------
                  HL-Gap            0.1338146 Eh            3.6413 eV
             Fermi-level           -0.3000549 Eh           -8.1649 eV

     #   Z          covCN         q      C6AA      α(0)
     1  15 P        3.045    -0.116   165.504    23.111
     2   6 C        3.748    -0.045    21.445     6.605
     3   1 H        0.926     0.039     2.463     2.454
     4   1 H        0.925     0.042     2.428     2.437
     5   6 C        3.819    -0.096    22.315     6.723
     6   1 H        0.925     0.041     2.436     2.441
     7   1 H        0.925     0.036     2.507     2.476
     8   1 H        0.925     0.032     2.556     2.500
     9   6 C        2.916     0.008    27.844     8.653
    10   6 C        3.017    -0.030    28.737     8.793
    11   6 C        2.960    -0.028    28.710     8.789
    12   6 C        2.918    -0.030    28.740     8.791
    13   6 C        2.919    -0.031    28.782     8.798
    14   6 C        2.920    -0.029    28.732     8.790
    15   1 H        0.925     0.040     2.455     2.450
    16   1 H        0.926     0.032     2.554     2.499
    17   1 H        0.926     0.030     2.581     2.512
    18   1 H        0.926     0.028     2.612     2.528
    19   1 H        0.926     0.029     2.596     2.520
    20   6 C        3.748    -0.046    21.470     6.609
    21   1 H        0.926     0.038     2.469     2.457
    22   1 H        0.925     0.043     2.413     2.429
    23   6 C        3.811    -0.098    22.356     6.730
    24   1 H        0.925     0.042     2.423     2.434
    25   1 H        0.925     0.037     2.492     2.469
    26   1 H        0.925     0.034     2.537     2.491

 Mol. C6AA /au·bohr⁶  :       7598.558698
 Mol. C8AA /au·bohr⁸  :     202572.725425
 Mol. α(0) /au        :        139.488428


Wiberg/Mayer (AO) data.
largest (>0.10) Wiberg bond orders for each atom

 ---------------------------------------------------------------------------
     #   Z sym  total        # sym  WBO       # sym  WBO       # sym  WBO
 ---------------------------------------------------------------------------
     1  15 P    3.346 --     2 C    1.028    20 C    1.021     9 C    1.006
     2   6 C    3.994 --     1 P    1.028     5 C    1.016     3 H    0.957
                             4 H    0.950
     3   1 H    0.998 --     2 C    0.957
     4   1 H    0.998 --     2 C    0.950
     5   6 C    3.997 --     2 C    1.016     8 H    0.985     6 H    0.984
                             7 H    0.984
     6   1 H    0.998 --     5 C    0.984
     7   1 H    0.999 --     5 C    0.984
     8   1 H    0.999 --     5 C    0.985
     9   6 C    3.983 --    10 C    1.408    11 C    1.400     1 P    1.006
                            14 C    0.108
    10   6 C    3.991 --    12 C    1.443     9 C    1.408    15 H    0.964
                            13 C    0.108
    11   6 C    3.992 --    13 C    1.449     9 C    1.400    16 H    0.961
                            12 C    0.110
    12   6 C    3.992 --    10 C    1.443    14 C    1.440    17 H    0.970
                            11 C    0.110
    13   6 C    3.993 --    11 C    1.449    14 C    1.433    18 H    0.970
                            10 C    0.108
    14   6 C    3.989 --    12 C    1.440    13 C    1.433    19 H    0.971
                             9 C    0.108
    15   1 H    0.998 --    10 C    0.964
    16   1 H    0.999 --    11 C    0.961
    17   1 H    0.999 --    12 C    0.970
    18   1 H    0.999 --    13 C    0.970
    19   1 H    0.998 --    14 C    0.971
    20   6 C    3.995 --     1 P    1.021    23 C    1.016    21 H    0.959
                            22 H    0.951
    21   1 H    0.998 --    20 C    0.959
    22   1 H    0.998 --    20 C    0.951
    23   6 C    3.996 --    20 C    1.016    25 H    0.985    24 H    0.985
                            26 H    0.984
    24   1 H    0.998 --    23 C    0.985
    25   1 H    0.999 --    23 C    0.985
    26   1 H    0.998 --    23 C    0.984
 ---------------------------------------------------------------------------

Topologies differ in total number of bonds
Writing topology from bond orders to xtbtopo.mol

molecular dipole:
                 x           y           z       tot (Debye)
 q only:       -0.152       0.204       0.039
   full:       -0.400       0.495      -0.104       1.640
molecular quadrupole (traceless):
                xx          xy          yy          xz          yz          zz
 q only:       -1.147       0.720       0.634       1.364      -0.922       0.514
  q+dip:       -4.377      -1.248      -0.350       2.921      -3.287       4.728
   full:       -4.001       1.650      -0.027       2.525      -3.175       4.028

           -------------------------------------------------
          |                Geometry Summary                 |
           -------------------------------------------------

      molecular mass/u    :      166.2002322
   center of mass at/Å    :        1.3440571       0.2228897      -4.1332981
  moments of inertia/u·Å² :        0.3331337E+03   0.8194454E+03   0.9281171E+03
rotational constants/cm⁻¹ :        0.5060320E-01   0.2057200E-01   0.1816326E-01

 * 23 selected distances

     #   Z          #   Z                                           value/Å
     2   6 C        3   1 H                                       1.0938148
     2   6 C        4   1 H                                       1.0933139
     2   6 C        5   6 C                                       1.5224070
     5   6 C        6   1 H                                       1.0883707
     5   6 C        7   1 H                                       1.0888807
     5   6 C        8   1 H                                       1.0889244
     9   6 C       10   6 C                                       1.3904914
     9   6 C       11   6 C                                       1.3901837
    10   6 C       12   6 C                                       1.3833103
    11   6 C       13   6 C                                       1.3827159
    12   6 C       14   6 C                                       1.3841940
    13   6 C       14   6 C                                       1.3852899
    10   6 C       15   1 H                                       1.0813615
    11   6 C       16   1 H                                       1.0807207
    12   6 C       17   1 H                                       1.0805031
    13   6 C       18   1 H                                       1.0809859
    14   6 C       19   1 H                                       1.0803087 (min)
    20   6 C       21   1 H                                       1.0940858
    20   6 C       22   1 H                                       1.0935418
    20   6 C       23   6 C                                       1.5225453 (max)
    23   6 C       24   1 H                                       1.0882101
    23   6 C       25   1 H                                       1.0879218
    23   6 C       26   1 H                                       1.0888969

 * 2 distinct bonds (by element types)

   Z      Z             #   av. dist./Å        max./Å        min./Å
   1 H    6 C          15     1.0873227     1.0940858     1.0803087
   6 C    6 C           8     1.4201422     1.5225453     1.3827159

           -------------------------------------------------
          |               Frequency Printout                |
           -------------------------------------------------
 projected vibrational frequencies (cm⁻¹)
eigval :       -0.00    -0.00    -0.00     0.00     0.00     0.00
eigval :       23.41    54.58    72.05    94.23   144.07   167.97
eigval :      203.28   215.91   224.36   265.56   314.65   328.67
eigval :      363.16   425.37   450.77   586.03   655.61   660.21
eigval :      686.03   702.04   739.20   754.40   778.04   874.76
eigval :      898.87   926.59   932.72   968.74   974.87   997.85
eigval :     1013.14  1016.92  1071.43  1076.75  1083.11  1117.53
eigval :     1121.35  1181.65  1199.10  1220.33  1225.48  1250.41
eigval :     1255.59  1278.10  1315.61  1409.31  1411.45  1423.41
eigval :     1446.27  1451.32  1458.93  1497.31  1498.55  1501.88
eigval :     1502.26  1579.92  1589.64  2928.89  2934.30  2946.61
eigval :     2949.75  3013.14  3014.20  3020.37  3026.75  3029.61
eigval :     3033.71  3063.40  3063.95  3072.17  3077.54  3087.95
 reduced masses (amu)
   1: 12.18   2: 13.55   3: 12.40   4: 13.33   5: 12.99   6: 12.38   7: 10.20   8:  9.72
   9:  9.24  10:  9.30  11:  8.12  12:  6.19  13:  7.97  14:  3.90  15:  8.48  16:  9.79
  17: 13.42  18: 12.87  19:  8.83  20: 20.65  21: 10.57  22: 11.18  23: 11.96  24: 11.64
  25: 14.21  26: 15.17  27:  4.24  28:  4.07  29:  4.99  30:  3.30  31:  3.54  32:  4.19
  33:  3.01  34:  9.77  35:  3.68  36:  3.21  37:  3.68  38:  4.26  39:  9.60  40:  9.30
  41:  7.88  42:  7.48  43:  5.54  44:  1.33  45:  1.92  46:  3.69  47:  3.35  48:  4.35
  49:  4.27  50:  3.40  51: 11.95  52:  2.94  53:  2.96  54:  8.60  55:  2.60  56:  2.61
  57:  7.19  58:  1.52  59:  1.54  60:  1.55  61:  1.55  62: 11.45  63: 11.46  64:  1.92
  65:  1.92  66:  1.54  67:  1.56  68:  1.88  69:  1.86  70:  1.87  71:  1.93  72:  1.40
  73:  1.35  74:  1.76  75:  1.79  76:  1.82  77:  1.87  78:  1.92
 IR intensities (km·mol⁻¹)
   1:  0.01   2:  0.02   3:  0.04   4:  0.12   5:  0.17   6:  0.12   7:  0.22   8:  0.02
   9:  0.06  10:  0.07  11:  0.38  12:  0.24  13:  0.11  14:  0.35  15:  0.16  16:  0.35
  17:  0.07  18:  0.14  19:  0.02  20:  8.72  21:  3.03  22:  0.12  23:  5.82  24:  4.86
  25: 12.70  26: 46.27  27:  6.91  28: 18.59  29: 23.34  30:  0.12  31:  0.04  32:  0.04
  33:  0.00  34:  2.43  35:  1.66  36:  3.42  37:  3.36  38:  3.11  39:  2.71  40:  4.91
  41:  0.22  42:  3.90  43:  3.59  44:  0.02  45:  0.63  46:  1.26  47:  1.85  48:  7.60
  49:  8.36  50:  1.22  51:  0.86  52:  1.84  53:  1.89  54:  1.58  55:  0.84  56:  0.18
  57:  0.42  58:  2.74  59:  3.08  60:  1.83  61:  0.59  62:  0.53  63:  0.55  64:  5.71
  65: 37.30  66:  9.23  67: 27.86  68: 51.79  69: 48.87  70: 31.04  71: 31.37  72: 17.94
  73: 25.37  74: 15.69  75:  0.70  76:  9.83  77: 87.70  78: 62.09
 Raman intensities (Ä⁴*amu⁻¹)
   1:  0.00   2:  0.00   3:  0.00   4:  0.00   5:  0.00   6:  0.00   7:  0.00   8:  0.00
   9:  0.00  10:  0.00  11:  0.00  12:  0.00  13:  0.00  14:  0.00  15:  0.00  16:  0.00
  17:  0.00  18:  0.00  19:  0.00  20:  0.00  21:  0.00  22:  0.00  23:  0.00  24:  0.00
  25:  0.00  26:  0.00  27:  0.00  28:  0.00  29:  0.00  30:  0.00  31:  0.00  32:  0.00
  33:  0.00  34:  0.00  35:  0.00  36:  0.00  37:  0.00  38:  0.00  39:  0.00  40:  0.00
  41:  0.00  42:  0.00  43:  0.00  44:  0.00  45:  0.00  46:  0.00  47:  0.00  48:  0.00
  49:  0.00  50:  0.00  51:  0.00  52:  0.00  53:  0.00  54:  0.00  55:  0.00  56:  0.00
  57:  0.00  58:  0.00  59:  0.00  60:  0.00  61:  0.00  62:  0.00  63:  0.00  64:  0.00
  65:  0.00  66:  0.00  67:  0.00  68:  0.00  69:  0.00  70:  0.00  71:  0.00  72:  0.00
  73:  0.00  74:  0.00  75:  0.00  76:  0.00  77:  0.00  78:  0.00
 output can be read by thermo (or use thermo option).
 writing <g98.out> molden fake output.
 recommended (thermochemical) frequency scaling factor: 1.0
           -------------------------------------------------
          |             Thermodynamic Functions             |
           -------------------------------------------------

Refinement of some symmetry elements was terminated before convergence was reached.
Some symmetry elements may remain unidentified.
Molecule has no symmetry elements
It seems to be the C1 point group
c1  symmetry found (for desy threshold:  0.10E+00) used in thermo

          ...................................................
          :                      SETUP                      :
          :.................................................:
          :  # frequencies                          72      :
          :  # imaginary freq.                       0      :
          :  linear?                             false      :
          :  only rotor calc.                    false      :
          :  symmetry                               c1      :
          :  rotational number                       1      :
          :  scaling factor                  1.0000000      :
          :  rotor cutoff                   50.0000000 cm⁻¹ :
          :  imag. cutoff                  -20.0000000 cm⁻¹ :
          :.................................................:

    mode    ω/cm⁻¹     T·S(HO)/kcal·mol⁻¹    T·S(FR)/kcal·mol⁻¹   T·S(vib)
   ------------------------------------------------------------------------
       1     23.41    -1.88483 (  4.58%)    -1.28107 ( 95.42%)    -1.30874
       2     54.58    -1.38464 ( 58.68%)    -1.03045 ( 41.32%)    -1.23828
       3     72.05    -1.22137 ( 81.18%)    -0.94822 ( 18.82%)    -1.16995
       4     94.23    -1.06450 ( 92.65%)    -0.86875 (  7.35%)    -1.05012
       5    144.07    -0.81964 ( 98.57%)    -0.74299 (  1.43%)    -0.81854
       6    167.97    -0.73286 ( 99.22%)    -0.69753 (  0.78%)    -0.73259
       7    203.28    -0.62707 ( 99.64%)    -0.64102 (  0.36%)    -0.62712
       8    215.91    -0.59425 ( 99.71%)    -0.62316 (  0.29%)    -0.59434
       9    224.36    -0.57353 ( 99.75%)    -0.61179 (  0.25%)    -0.57362
      10    265.56    -0.48447 ( 99.87%)    -0.56185 (  0.13%)    -0.48457
   ------------------------------------------------------------------------

   temp. (K)  partition function   enthalpy   heat capacity  entropy
                                   cal/mol     cal/K/mol   cal/K/mol   J/K/mol
 298.15  VIB  0.276E+05             6228.411     39.293     38.562
         ROT  0.122E+07              888.752      2.981     30.824
         INT  0.335E+11             7117.164     42.273     69.386
         TR   0.207E+28             1481.254      4.968     41.214
         TOT                        8598.4176    47.2416   110.5999   462.7499

       T/K    H(0)-H(T)+PV         H(T)/Eh          T*S/Eh         G(T)/Eh
   ------------------------------------------------------------------------
    298.15    0.137025E-01    0.232277E+00    0.525496E-01    0.179727E+00
   ------------------------------------------------------------------------

         :::::::::::::::::::::::::::::::::::::::::::::::::::::
         ::                  THERMODYNAMIC                  ::
         :::::::::::::::::::::::::::::::::::::::::::::::::::::
         :: total free energy         -31.376378518066 Eh   ::
         ::.................................................::
         :: total energy              -31.556105865991 Eh   ::
         :: zero point energy           0.218574463797 Eh   ::
         :: G(RRHO) w/o ZPVE           -0.038847115872 Eh   ::
         :: G(RRHO) contrib.            0.179727347925 Eh   ::
         :::::::::::::::::::::::::::::::::::::::::::::::::::::

optimized geometry written to: xtbopt.xyz


           -------------------------------------------------
          | TOTAL ENERGY              -31.556105865991 Eh   |
          | TOTAL ENTHALPY            -31.323828951511 Eh   |
          | TOTAL FREE ENERGY         -31.376378518066 Eh   |
          | GRADIENT NORM               0.000028599241 Eh/α |
          | HOMO-LUMO GAP               3.641281896836 eV   |
           -------------------------------------------------

------------------------------------------------------------------------
 * finished run on 2025/07/14 at 11:30:53.777     
------------------------------------------------------------------------
 total:
 * wall-time:     0 d,  0 h,  0 min, 30.127 sec
 *  cpu-time:     0 d,  0 h,  5 min, 43.599 sec
 * ratio c/w:    11.405 speedup
 SCF:
 * wall-time:     0 d,  0 h,  0 min,  0.088 sec
 *  cpu-time:     0 d,  0 h,  0 min,  1.055 sec
 * ratio c/w:    11.953 speedup
 ANC optimizer:
 * wall-time:     0 d,  0 h,  0 min, 26.721 sec
 *  cpu-time:     0 d,  0 h,  5 min, 16.222 sec
 * ratio c/w:    11.834 speedup
 analytical hessian:
 * wall-time:     0 d,  0 h,  0 min,  3.308 sec
 *  cpu-time:     0 d,  0 h,  0 min, 26.222 sec
 * ratio c/w:     7.928 speedup

