      -----------------------------------------------------------      
     |                   =====================                   |     
     |                           x T B                           |     
     |                   =====================                   |     
     |                         S. Grimme                         |     
     |          Mulliken Center for Theoretical Chemistry        |     
     |                    University of Bonn                     |     
      -----------------------------------------------------------      

   * xtb version 6.7.0 (08769fc) compiled by 'albert@albert-system' on 2024-03-04

   xtb is free software: you can redistribute it and/or modify it under
   the terms of the GNU Lesser General Public License as published by
   the Free Software Foundation, either version 3 of the License, or
   (at your option) any later version.
   
   xtb is distributed in the hope that it will be useful,
   but WITHOUT ANY WARRANTY; without even the implied warranty of
   MERCHANTABILITY or FITNESS FOR A PARTICULAR PURPOSE.  See the
   GNU Lesser General Public License for more details.
   
   Cite this work as:
   * C. Bannwarth, E. Caldeweyher, S. Ehlert, A. Hansen, P. Pracht,
     J. Seibert, S. Spicher, S. Grimme, WIREs Comput. Mol. Sci., 2020, 11,
     e01493. DOI: 10.1002/wcms.1493
   
   for GFN2-xTB:
   * C. Bannwarth, S. Ehlert and S. Grimme., J. Chem. Theory Comput., 2019,
     15, 1652-1671. DOI: 10.1021/acs.jctc.8b01176
   for GFN1-xTB:
   * S. Grimme, C. Bannwarth, P. Shushkov, J. Chem. Theory Comput., 2017,
     13, 1989-2009. DOI: 10.1021/acs.jctc.7b00118
   for GFN0-xTB:
   * P. Pracht, E. Caldeweyher, S. Ehlert, S. Grimme, ChemRxiv, 2019, preprint.
     DOI: 10.26434/chemrxiv.8326202.v1
   for GFN-FF:
   * S. Spicher and S. Grimme, Angew. Chem. Int. Ed., 2020, 59, 15665-15673.
     DOI: 10.1002/anie.202004239
   
   for ALPB and GBSA implicit solvation:
   * S. Ehlert, M. Stahn, S. Spicher, S. Grimme, J. Chem. Theory Comput.,
     2021, 17, 4250-4261. DOI: 10.1021/acs.jctc.1c00471
   
   for ddCOSMO and CPCM-X implicit solvation:
   * M. Stahn, S. Ehlert, S. Grimme, J. Phys. Chem. A,
     2023, XX, XXXX-XXXX. DOI: 10.1021/acs.jpca.3c04382
   
   for DFT-D4:
   * E. Caldeweyher, C. Bannwarth and S. Grimme, J. Chem. Phys., 2017,
     147, 034112. DOI: 10.1063/1.4993215
   * E. Caldeweyher, S. Ehlert, A. Hansen, H. Neugebauer, S. Spicher,
     C. Bannwarth and S. Grimme, J. Chem. Phys., 2019, 150, 154122.
     DOI: 10.1063/1.5090222
   * E. Caldeweyher, J.-M. Mewes, S. Ehlert and S. Grimme, Phys. Chem. Chem. Phys.
     2020, 22, 8499-8512. DOI: 10.1039/D0CP00502A
   
   for sTDA-xTB:
   * S. Grimme and C. Bannwarth, J. Chem. Phys., 2016, 145, 054103.
     DOI: 10.1063/1.4959605
   
   in the mass-spec context:
   * V. Asgeirsson, C. Bauer and S. Grimme, Chem. Sci., 2017, 8, 4879.
     DOI: 10.1039/c7sc00601b
   * J. Koopman and S. Grimme, ACS Omega 2019, 4, 12, 15120-15133.
     DOI: 10.1021/acsomega.9b02011
   
   for metadynamics refer to:
   * S. Grimme, J. Chem. Theory Comput., 2019, 155, 2847-2862
     DOI: 10.1021/acs.jctc.9b00143
   
   for SPH calculations refer to:
   * S. Spicher and S. Grimme, J. Chem. Theory Comput., 2021, 17, 1701-1714
     DOI: 10.1021/acs.jctc.0c01306
   
   for ONIOM refer to:
   * C. Plett, A. Katbashev, S. Ehlert, S. Grimme, M. Bursch,
     Phys. Chem. Chem. Phys., 2023, 25, 17860-17868. DOI: 10.1039/D3CP02178E
   
   for DIPRO refer to:
   * J. Kohn, N. Gildemeister, S. Grimme, D. Fazzi, A. Hansen,
     J. Chem. Phys., 2023, just accepted.
   
   for PTB refer to:
   * S. Grimme, M. Mueller, A. Hansen, J. Chem. Phys., 2023, 158, 124111.
     DOI: 10.1063/5.0137838
   
   with help from (in alphabetical order)
   P. Atkinson, C. Bannwarth, F. Bohle, G. Brandenburg, E. Caldeweyher
   M. Checinski, S. Dohm, S. Ehlert, S. Ehrlich, I. Gerasimov, C. Hölzer
   A. Katbashev, J. Kohn, J. Koopman, C. Lavigne, S. Lehtola, F. März, M. Müller,
   F. Musil, H. Neugebauer, J. Pisarek, C. Plett, P. Pracht, F. Pultar,
   J. Seibert, P. Shushkov, S. Spicher, M. Stahn, M. Steiner, T. Strunk,
   J. Stückrath, T. Rose, and J. Unsleber
   
 * started run on 2025/07/14 at 11:38:58.485     
   ID    Z sym.   atoms
    1   15 P      1
    2    6 C      2, 5, 9-14, 20, 23
    3    1 H      3, 4, 6-8, 15-19, 21, 22, 24-26

           -------------------------------------------------
          |                Calculation Setup                |
           -------------------------------------------------

          program call               : /home/minenky/programs/xtb/xtb-dist/bin/xtb m1_00_PEt2Ph-PBE0-D3-TZ-uniMM_9.xyz --charge 0 --T --ohess extreme --cycles 5000 --acc 0.01 --iterations 5000
          coordinate file            : m1_00_PEt2Ph-PBE0-D3-TZ-uniMM_9.xyz
          omp threads                :                    12

########################################################################
[WARNING] Please study the warnings concerning your input carefully
-1- prog_main_parseArguments: Unknown option '--T' provided
########################################################################

           -------------------------------------------------
          |                 G F N 2 - x T B                 |
           -------------------------------------------------

        Reference                      10.1021/acs.jctc.8b01176
      * Hamiltonian:
        H0-scaling (s, p, d)           1.850000    2.230000    2.230000
        zeta-weighting                 0.500000
      * Dispersion:
        s8                             2.700000
        a1                             0.520000
        a2                             5.000000
        s9                             5.000000
      * Repulsion:
        kExp                           1.500000    1.000000
        rExp                           1.000000
      * Coulomb:
        alpha                          2.000000
        third order                    shell-resolved
        anisotropic                    true
        a3                             3.000000
        a5                             4.000000
        cn-shift                       1.200000
        cn-exp                         4.000000
        max-rad                        5.000000


          ...................................................
          :                      SETUP                      :
          :.................................................:
          :  # basis functions                  65          :
          :  # atomic orbitals                  64          :
          :  # shells                           38          :
          :  # electrons                        60          :
          :  max. iterations                  5000          :
          :  Hamiltonian                  GFN2-xTB          :
          :  restarted?                      false          :
          :  GBSA solvation                  false          :
          :  PC potential                    false          :
          :  electronic temp.          300.0000000     K    :
          :  accuracy                    0.0100000          :
          :  -> integral cutoff          0.4500000E+02      :
          :  -> integral neglect         0.1000000E-09      :
          :  -> SCF convergence          0.1000000E-07 Eh   :
          :  -> wf. convergence          0.1000000E-05 e    :
          :  Broyden damping             0.4000000          :
          :  net charge                          0          :
          :  unpaired electrons                  0          :
          ...................................................

 iter      E             dE          RMSdq      gap      omega  full diag
   1    -32.0198616 -0.320199E+02  0.379E+00    4.04       0.0  T
   2    -32.0648619 -0.450003E-01  0.225E+00    3.64       1.0  T
   3    -32.0645959  0.266012E-03  0.953E-01    3.38       1.0  T
   4    -32.0660510 -0.145502E-02  0.264E-01    3.41       1.0  T
   5    -32.0670053 -0.954310E-03  0.123E-01    3.46       1.0  T
   6    -32.0672289 -0.223655E-03  0.466E-02    3.45       1.0  T
   7    -32.0672472 -0.182512E-04  0.162E-02    3.45       1.2  T
   8    -32.0672481 -0.915570E-06  0.678E-03    3.45       2.9  T
   9    -32.0672485 -0.452945E-06  0.156E-03    3.45      12.6  T
  10    -32.0672486 -0.300614E-07  0.581E-04    3.45      33.8  T
  11    -32.0672486 -0.799325E-09  0.251E-04    3.45      78.2  T
  12    -32.0672486 -0.317598E-09  0.658E-05    3.45     298.0  T
  13    -32.0672486 -0.141398E-10  0.319E-05    3.45     615.2  T
  14    -32.0672486 -0.279954E-11  0.107E-05    3.45    1833.2  T
  15    -32.0672486 -0.106581E-12  0.352E-06    3.45    5577.3  T
  16    -32.0672486 -0.227374E-12  0.149E-06    3.45   13135.8  T

   *** convergence criteria satisfied after 16 iterations ***

         #    Occupation            Energy/Eh            Energy/eV
      -------------------------------------------------------------
         1        2.0000           -0.6597394             -17.9524
       ...           ...                  ...                  ...
        24        2.0000           -0.4392209             -11.9518
        25        2.0000           -0.4245781             -11.5534
        26        2.0000           -0.4185138             -11.3883
        27        2.0000           -0.4077672             -11.0959
        28        2.0000           -0.4028019             -10.9608
        29        2.0000           -0.4003357             -10.8937
        30        2.0000           -0.3581830              -9.7467 (HOMO)
        31                         -0.2314176              -6.2972 (LUMO)
        32                         -0.2228607              -6.0643
        33                         -0.1458373              -3.9684
        34                         -0.1419130              -3.8616
        35                         -0.0950269              -2.5858
       ...                                ...                  ...
        64                          0.8135021              22.1365
      -------------------------------------------------------------
                  HL-Gap            0.1267654 Eh            3.4495 eV
             Fermi-level           -0.2948003 Eh           -8.0219 eV

 SCC (total)                   0 d,  0 h,  0 min,  0.087 sec
 SCC setup                      ...        0 min,  0.000 sec (  0.139%)
 Dispersion                     ...        0 min,  0.000 sec (  0.145%)
 classical contributions        ...        0 min,  0.000 sec (  0.012%)
 integral evaluation            ...        0 min,  0.002 sec (  2.162%)
 iterations                     ...        0 min,  0.083 sec ( 95.377%)
 molecular gradient             ...        0 min,  0.002 sec (  2.055%)
 printout                       ...        0 min,  0.000 sec (  0.092%)

         :::::::::::::::::::::::::::::::::::::::::::::::::::::
         ::                     SUMMARY                     ::
         :::::::::::::::::::::::::::::::::::::::::::::::::::::
         :: total energy             -31.552475554144 Eh    ::
         :: gradient norm              0.031402030929 Eh/a0 ::
         :: HOMO-LUMO gap              3.449461404853 eV    ::
         ::.................................................::
         :: SCC energy               -32.067066842847 Eh    ::
         :: -> isotropic ES            0.004024062295 Eh    ::
         :: -> anisotropic ES          0.005994956674 Eh    ::
         :: -> anisotropic XC          0.021868385281 Eh    ::
         :: -> dispersion             -0.024178995317 Eh    ::
         :: repulsion energy           0.514591288703 Eh    ::
         :: add. restraining           0.000000000000 Eh    ::
         :: total charge               0.000000000000 e     ::
         :::::::::::::::::::::::::::::::::::::::::::::::::::::

      ----------------------------------------------------------- 
     |                   =====================                   |
     |                        A N C O P T                        |
     |                   =====================                   |
     |               Approximate Normal Coordinate               |
     |                Rational Function Optimizer                |
      ----------------------------------------------------------- 
      ----------------------------------------------------------- 
     |                   =====================                   |
     |                        A N C O P T                        |
     |                   =====================                   |
     |               Approximate Normal Coordinate               |
     |                Rational Function Optimizer                |
      ----------------------------------------------------------- 

          ...................................................
          :                      SETUP                      :
          :.................................................:
          :   optimization level           extreme          :
          :   max. optcycles                  5000          :
          :   ANC micro-cycles                  20          :
          :   degrees of freedom                72          :
          :.................................................:
          :   RF solver                   davidson          :
          :   write xtbopt.log                true          :
          :   linear?                        false          :
          :   energy convergence         0.5000000E-07 Eh   :
          :   grad. convergence          0.5000000E-04 Eh/α :
          :   maxmium RF displ.          1.0000000          :
          :   Hlow (freq-cutoff)         0.1000000E-01      :
          :   Hmax (freq-cutoff)         5.0000000          :
          :   S6 in model hess.         20.0000000          :
          ...................................................

generating ANC from model Hessian ...
Using Lindh-Hessian (1995)
 Shifting diagonal of input Hessian by   9.197592373181225E-003
 Lowest  eigenvalues of input Hessian
    0.000000    0.000000    0.000000    0.000000    0.000000    0.000000
    0.010000    0.010158    0.010767    0.011036    0.012346    0.013072
    0.015074    0.018282    0.018467    0.019867    0.023223    0.023788
 Highest eigenvalues
    1.346945    1.535056    1.561798    1.864091    1.965752    1.985668
 

........................................................................
.............................. CYCLE    1 ..............................
........................................................................

 iter      E             dE          RMSdq      gap      omega  full diag
   1    -32.0672486 -0.320672E+02  0.728E-07    3.45       0.0  T
   2    -32.0672486  0.284217E-13  0.366E-07    3.45   53577.0  T
   3    -32.0672486 -0.213163E-13  0.280E-07    3.45   70067.3  T
     SCC iter.                  ...        0 min,  0.073 sec
     gradient                   ...        0 min,  0.002 sec
 * total energy  :   -31.5524756 Eh     change       -0.2131628E-13 Eh
   gradient norm :     0.0314020 Eh/α   predicted     0.0000000E+00 (-100.00%)
   displ. norm   :     0.2364407 α      lambda       -0.4147910E-02
   maximum displ.:     0.0882323 α      in ANC's #17, #20, #8, ...

........................................................................
.............................. CYCLE    2 ..............................
........................................................................

 iter      E             dE          RMSdq      gap      omega  full diag
   1    -32.0726165 -0.320726E+02  0.289E-01    3.63       0.0  T
   2    -32.0727165 -0.100022E-03  0.130E-01    3.66       1.0  T
   3    -32.0727268 -0.102455E-04  0.415E-02    3.68       1.0  T
   4    -32.0727273 -0.466747E-06  0.177E-02    3.68       1.1  T
   5    -32.0727286 -0.129780E-05  0.524E-03    3.68       3.7  T
   6    -32.0727290 -0.409048E-06  0.199E-03    3.68       9.9  T
   7    -32.0727290 -0.461821E-08  0.625E-04    3.68      31.4  T
   8    -32.0727290 -0.151029E-08  0.234E-04    3.68      83.6  T
   9    -32.0727290 -0.649770E-09  0.739E-05    3.68     265.2  T
  10    -32.0727290 -0.746212E-10  0.343E-05    3.68     571.6  T
  11    -32.0727290 -0.562039E-11  0.879E-06    3.68    2230.9  T
  12    -32.0727290 -0.106581E-12  0.300E-06    3.68    6541.0  T
     SCC iter.                  ...        0 min,  0.074 sec
     gradient                   ...        0 min,  0.002 sec
 * total energy  :   -31.5546511 Eh     change       -0.2175585E-02 Eh
   gradient norm :     0.0108070 Eh/α   predicted    -0.2189930E-02 (   0.66%)
   displ. norm   :     0.1833113 α      lambda       -0.7761954E-03
   maximum displ.:     0.0934730 α      in ANC's #6, #9, #3, ...

........................................................................
.............................. CYCLE    3 ..............................
........................................................................

 iter      E             dE          RMSdq      gap      omega  full diag
   1    -32.0758389 -0.320758E+02  0.927E-02    3.65       0.0  T
   2    -32.0758410 -0.208083E-05  0.518E-02    3.64       1.0  T
   3    -32.0758409  0.827967E-07  0.751E-03    3.64       2.6  T
   4    -32.0758410 -0.111596E-06  0.389E-03    3.64       5.0  T
   5    -32.0758413 -0.297913E-06  0.890E-04    3.64      22.0  T
   6    -32.0758413 -0.108386E-07  0.415E-04    3.64      47.2  T
   7    -32.0758413 -0.662148E-09  0.147E-04    3.64     133.3  T
   8    -32.0758413 -0.279670E-10  0.547E-05    3.64     358.3  T
   9    -32.0758413 -0.248477E-10  0.200E-05    3.64     979.1  T
  10    -32.0758413 -0.189004E-11  0.820E-06    3.64    2390.5  T
  11    -32.0758413 -0.412115E-12  0.373E-06    3.64    5261.7  T
     SCC iter.                  ...        0 min,  0.073 sec
     gradient                   ...        0 min,  0.002 sec
 * total energy  :   -31.5551348 Eh     change       -0.4837077E-03 Eh
   gradient norm :     0.0037510 Eh/α   predicted    -0.4011563E-03 ( -17.07%)
   displ. norm   :     0.1676793 α      lambda       -0.2494591E-03
   maximum displ.:     0.0959280 α      in ANC's #6, #3, #4, ...

........................................................................
.............................. CYCLE    4 ..............................
........................................................................

 iter      E             dE          RMSdq      gap      omega  full diag
   1    -32.0765719 -0.320766E+02  0.536E-02    3.64       0.0  T
   2    -32.0765723 -0.407187E-06  0.324E-02    3.63       1.0  T
   3    -32.0765717  0.642318E-06  0.673E-03    3.63       2.9  T
   4    -32.0765724 -0.750209E-06  0.153E-03    3.63      12.8  T
   5    -32.0765724 -0.371467E-07  0.662E-04    3.63      29.6  T
   6    -32.0765725 -0.237277E-08  0.237E-04    3.63      82.6  T
   7    -32.0765725 -0.117673E-09  0.699E-05    3.63     280.5  T
   8    -32.0765725 -0.242224E-10  0.238E-05    3.63     823.3  T
   9    -32.0765725 -0.496669E-11  0.920E-06    3.63    2132.4  T
  10    -32.0765725 -0.959233E-12  0.397E-06    3.63    4935.8  T
     SCC iter.                  ...        0 min,  0.074 sec
     gradient                   ...        0 min,  0.002 sec
 * total energy  :   -31.5553148 Eh     change       -0.1799728E-03 Eh
   gradient norm :     0.0022384 Eh/α   predicted    -0.1282640E-03 ( -28.73%)
   displ. norm   :     0.2090474 α      lambda       -0.1830921E-03
   maximum displ.:     0.1071084 α      in ANC's #6, #3, #4, ...

........................................................................
.............................. CYCLE    5 ..............................
........................................................................

 iter      E             dE          RMSdq      gap      omega  full diag
   1    -32.0763296 -0.320763E+02  0.584E-02    3.63       0.0  T
   2    -32.0763303 -0.733607E-06  0.344E-02    3.63       1.0  T
   3    -32.0763298  0.537537E-06  0.674E-03    3.63       2.9  T
   4    -32.0763303 -0.574501E-06  0.291E-03    3.63       6.7  T
   5    -32.0763305 -0.136175E-06  0.809E-04    3.63      24.2  T
   6    -32.0763305 -0.239171E-08  0.334E-04    3.63      58.6  T
   7    -32.0763305 -0.381462E-09  0.949E-05    3.63     206.6  T
   8    -32.0763305 -0.471445E-10  0.302E-05    3.63     649.4  T
   9    -32.0763305 -0.166978E-10  0.123E-05    3.63    1589.7  T
  10    -32.0763305 -0.120792E-11  0.397E-06    3.63    4934.2  T
  11    -32.0763305 -0.142109E-13  0.191E-06    3.63   10272.8  T
     SCC iter.                  ...        0 min,  0.073 sec
     gradient                   ...        0 min,  0.002 sec
 * total energy  :   -31.5554460 Eh     change       -0.1311928E-03 Eh
   gradient norm :     0.0034163 Eh/α   predicted    -0.9554952E-04 ( -27.17%)
   displ. norm   :     0.1984994 α      lambda       -0.1244100E-03
   maximum displ.:     0.0916865 α      in ANC's #1, #3, #6, ...

........................................................................
.............................. CYCLE    6 ..............................
........................................................................

 iter      E             dE          RMSdq      gap      omega  full diag
   1    -32.0759697 -0.320760E+02  0.593E-02    3.64       0.0  T
   2    -32.0759704 -0.666460E-06  0.348E-02    3.64       1.0  T
   3    -32.0759701  0.278083E-06  0.592E-03    3.64       3.3  T
   4    -32.0759705 -0.335761E-06  0.228E-03    3.64       8.6  T
   5    -32.0759705 -0.665837E-07  0.736E-04    3.64      26.7  T
   6    -32.0759705 -0.536355E-08  0.330E-04    3.64      59.4  T
   7    -32.0759705 -0.453994E-09  0.103E-04    3.64     190.0  T
   8    -32.0759705 -0.340847E-10  0.245E-05    3.64     800.3  T
   9    -32.0759705 -0.848388E-11  0.104E-05    3.64    1877.0  T
  10    -32.0759705 -0.113687E-11  0.458E-06    3.64    4278.3  T
  11    -32.0759705 -0.923706E-13  0.198E-06    3.64    9888.2  T
     SCC iter.                  ...        0 min,  0.074 sec
     gradient                   ...        0 min,  0.002 sec
 * total energy  :   -31.5555382 Eh     change       -0.9218216E-04 Eh
   gradient norm :     0.0029762 Eh/α   predicted    -0.6465913E-04 ( -29.86%)
   displ. norm   :     0.1804961 α      lambda       -0.9494338E-04
   maximum displ.:     0.0976308 α      in ANC's #1, #3, #4, ...

........................................................................
.............................. CYCLE    7 ..............................
........................................................................

 iter      E             dE          RMSdq      gap      omega  full diag
   1    -32.0760646 -0.320761E+02  0.604E-02    3.64       0.0  T
   2    -32.0760652 -0.587311E-06  0.354E-02    3.65       1.0  T
   3    -32.0760650  0.148741E-06  0.574E-03    3.64       3.4  T
   4    -32.0760653 -0.229414E-06  0.169E-03    3.65      11.6  T
   5    -32.0760653 -0.168772E-07  0.815E-04    3.65      24.1  T
   6    -32.0760653 -0.100201E-07  0.359E-04    3.65      54.6  T
   7    -32.0760653 -0.286661E-09  0.914E-05    3.65     214.7  T
   8    -32.0760653 -0.539941E-10  0.229E-05    3.65     857.7  T
   9    -32.0760653 -0.243006E-11  0.124E-05    3.65    1583.7  T
  10    -32.0760653 -0.134293E-11  0.522E-06    3.65    3756.0  T
  11    -32.0760653 -0.113687E-12  0.174E-06    3.65   11294.0  T
     SCC iter.                  ...        0 min,  0.074 sec
     gradient                   ...        0 min,  0.002 sec
 * total energy  :   -31.5556049 Eh     change       -0.6666977E-04 Eh
   gradient norm :     0.0017441 Eh/α   predicted    -0.4902044E-04 ( -26.47%)
   displ. norm   :     0.1711956 α      lambda       -0.4715014E-04
   maximum displ.:     0.1116940 α      in ANC's #1, #3, #4, ...

........................................................................
.............................. CYCLE    8 ..............................
........................................................................

 iter      E             dE          RMSdq      gap      omega  full diag
   1    -32.0767663 -0.320768E+02  0.659E-02    3.65       0.0  T
   2    -32.0767667 -0.389419E-06  0.388E-02    3.65       1.0  T
   3    -32.0767666  0.718943E-07  0.491E-03    3.65       4.0  T
   4    -32.0767668 -0.155516E-06  0.130E-03    3.65      15.1  T
   5    -32.0767668  0.128328E-08  0.790E-04    3.65      24.8  T
   6    -32.0767668 -0.728738E-08  0.353E-04    3.65      55.5  T
   7    -32.0767668 -0.231054E-09  0.662E-05    3.65     296.3  T
   8    -32.0767668 -0.358895E-10  0.259E-05    3.65     756.1  T
   9    -32.0767668 -0.301270E-11  0.135E-05    3.65    1456.0  T
  10    -32.0767668 -0.252243E-11  0.519E-06    3.65    3778.8  T
  11    -32.0767668 -0.710543E-13  0.103E-06    3.65   19017.7  T
     SCC iter.                  ...        0 min,  0.074 sec
     gradient                   ...        0 min,  0.002 sec
 * total energy  :   -31.5556460 Eh     change       -0.4108850E-04 Eh
   gradient norm :     0.0017940 Eh/α   predicted    -0.2388373E-04 ( -41.87%)
   displ. norm   :     0.0660471 α      lambda       -0.1940287E-04
   maximum displ.:     0.0501286 α      in ANC's #1, #10, #6, ...

........................................................................
.............................. CYCLE    9 ..............................
........................................................................

 iter      E             dE          RMSdq      gap      omega  full diag
   1    -32.0771761 -0.320772E+02  0.273E-02    3.65       0.0  T
   2    -32.0771761 -0.494916E-07  0.159E-02    3.65       1.2  T
   3    -32.0771761  0.302585E-09  0.128E-03    3.65      15.4  T
   4    -32.0771761 -0.111620E-07  0.361E-04    3.65      54.3  T
   5    -32.0771761 -0.594760E-09  0.187E-04    3.65     104.8  T
   6    -32.0771761 -0.197993E-09  0.773E-05    3.65     253.7  T
   7    -32.0771761 -0.491980E-10  0.237E-05    3.65     827.4  T
   8    -32.0771761 -0.550671E-11  0.724E-06    3.65    2708.2  T
   9    -32.0771761 -0.440536E-12  0.342E-06    3.65    5726.9  T
     SCC iter.                  ...        0 min,  0.073 sec
     gradient                   ...        0 min,  0.002 sec
 * total energy  :   -31.5556693 Eh     change       -0.2336695E-04 Eh
   gradient norm :     0.0009874 Eh/α   predicted    -0.9721488E-05 ( -58.40%)
   displ. norm   :     0.0976843 α      lambda       -0.2232235E-04
   maximum displ.:     0.0721443 α      in ANC's #1, #10, #6, ...

........................................................................
.............................. CYCLE   10 ..............................
........................................................................

 iter      E             dE          RMSdq      gap      omega  full diag
   1    -32.0770606 -0.320771E+02  0.361E-02    3.65       0.0  T
   2    -32.0770607 -0.807222E-07  0.211E-02    3.65       1.0  T
   3    -32.0770607 -0.667953E-08  0.132E-03    3.65      14.9  T
   4    -32.0770607 -0.125279E-07  0.537E-04    3.65      36.5  T
   5    -32.0770607 -0.112784E-08  0.240E-04    3.65      81.7  T
   6    -32.0770607 -0.834888E-10  0.128E-04    3.65     153.2  T
   7    -32.0770607 -0.106262E-09  0.299E-05    3.65     655.5  T
   8    -32.0770607 -0.133937E-10  0.128E-05    3.65    1536.3  T
   9    -32.0770607 -0.125056E-11  0.496E-06    3.65    3952.5  T
  10    -32.0770607 -0.135003E-12  0.179E-06    3.65   10941.8  T
     SCC iter.                  ...        0 min,  0.073 sec
     gradient                   ...        0 min,  0.002 sec
 * total energy  :   -31.5556939 Eh     change       -0.2462127E-04 Eh
   gradient norm :     0.0008493 Eh/α   predicted    -0.1120941E-04 ( -54.47%)
   displ. norm   :     0.0807252 α      lambda       -0.1268318E-04
   maximum displ.:     0.0652720 α      in ANC's #1, #10, #6, ...

........................................................................
.............................. CYCLE   11 ..............................
........................................................................

 iter      E             dE          RMSdq      gap      omega  full diag
   1    -32.0769636 -0.320770E+02  0.320E-02    3.64       0.0  T
   2    -32.0769637 -0.391092E-07  0.187E-02    3.64       1.0  T
   3    -32.0769637  0.258769E-08  0.122E-03    3.64      16.1  T
   4    -32.0769637 -0.144707E-07  0.462E-04    3.64      42.4  T
   5    -32.0769637 -0.154020E-08  0.201E-04    3.64      97.6  T
   6    -32.0769637 -0.324853E-09  0.830E-05    3.64     236.1  T
   7    -32.0769637 -0.216005E-10  0.223E-05    3.64     878.1  T
   8    -32.0769637 -0.896705E-11  0.785E-06    3.64    2497.4  T
   9    -32.0769637 -0.255795E-12  0.320E-06    3.64    6122.9  T
     SCC iter.                  ...        0 min,  0.072 sec
     gradient                   ...        0 min,  0.002 sec
 * total energy  :   -31.5557092 Eh     change       -0.1528478E-04 Eh
   gradient norm :     0.0008726 Eh/α   predicted    -0.6361156E-05 ( -58.38%)
   displ. norm   :     0.0624705 α      lambda       -0.9814607E-05
   maximum displ.:     0.0529699 α      in ANC's #1, #9, #7, ...

........................................................................
.............................. CYCLE   12 ..............................
........................................................................

 iter      E             dE          RMSdq      gap      omega  full diag
   1    -32.0769799 -0.320770E+02  0.267E-02    3.64       0.0  T
   2    -32.0769799 -0.403019E-07  0.156E-02    3.64       1.3  T
   3    -32.0769799  0.558848E-08  0.128E-03    3.64      15.3  T
   4    -32.0769799 -0.144491E-07  0.426E-04    3.64      46.0  T
   5    -32.0769799 -0.157671E-08  0.178E-04    3.64     110.2  T
   6    -32.0769799 -0.296666E-09  0.891E-05    3.64     220.0  T
   7    -32.0769799 -0.885336E-11  0.163E-05    3.64    1206.5  T
   8    -32.0769799 -0.368772E-11  0.896E-06    3.64    2188.9  T
   9    -32.0769799 -0.724754E-12  0.349E-06    3.64    5617.9  T
     SCC iter.                  ...        0 min,  0.073 sec
     gradient                   ...        0 min,  0.002 sec
 * total energy  :   -31.5557218 Eh     change       -0.1252685E-04 Eh
   gradient norm :     0.0006839 Eh/α   predicted    -0.4917660E-05 ( -60.74%)
   displ. norm   :     0.0549938 α      lambda       -0.8985081E-05
   maximum displ.:     0.0491130 α      in ANC's #1, #7, #9, ...

........................................................................
.............................. CYCLE   13 ..............................
........................................................................

 iter      E             dE          RMSdq      gap      omega  full diag
   1    -32.0769117 -0.320769E+02  0.251E-02    3.64       0.0  T
   2    -32.0769117 -0.446302E-07  0.146E-02    3.64       1.3  T
   3    -32.0769117  0.144455E-07  0.151E-03    3.64      13.0  T
   4    -32.0769117 -0.214269E-07  0.504E-04    3.64      38.9  T
   5    -32.0769117 -0.312686E-08  0.185E-04    3.64     106.1  T
   6    -32.0769117 -0.401108E-09  0.785E-05    3.64     249.7  T
   7    -32.0769117 -0.891731E-11  0.240E-05    3.64     818.4  T
   8    -32.0769117 -0.436984E-11  0.740E-06    3.64    2649.4  T
   9    -32.0769117 -0.103029E-11  0.249E-06    3.64    7870.2  T
     SCC iter.                  ...        0 min,  0.073 sec
     gradient                   ...        0 min,  0.002 sec
 * total energy  :   -31.5557334 Eh     change       -0.1168631E-04 Eh
   gradient norm :     0.0004411 Eh/α   predicted    -0.4501936E-05 ( -61.48%)
   displ. norm   :     0.0531110 α      lambda       -0.8043684E-05
   maximum displ.:     0.0476487 α      in ANC's #1, #8, #10, ...

........................................................................
.............................. CYCLE   14 ..............................
........................................................................

 iter      E             dE          RMSdq      gap      omega  full diag
   1    -32.0769536 -0.320770E+02  0.239E-02    3.64       0.0  T
   2    -32.0769536 -0.398636E-07  0.140E-02    3.64       1.4  T
   3    -32.0769536  0.124907E-07  0.140E-03    3.64      14.0  T
   4    -32.0769536 -0.194432E-07  0.450E-04    3.64      43.6  T
   5    -32.0769536 -0.241040E-08  0.210E-04    3.64      93.6  T
   6    -32.0769536 -0.425501E-09  0.755E-05    3.64     259.6  T
   7    -32.0769536  0.380140E-11  0.235E-05    3.64     834.5  T
   8    -32.0769536 -0.845546E-11  0.670E-06    3.64    2927.9  T
   9    -32.0769536 -0.660805E-12  0.276E-06    3.64    7104.9  T
     SCC iter.                  ...        0 min,  0.073 sec
     gradient                   ...        0 min,  0.002 sec
 * total energy  :   -31.5557443 Eh     change       -0.1086133E-04 Eh
   gradient norm :     0.0005361 Eh/α   predicted    -0.4028385E-05 ( -62.91%)
   displ. norm   :     0.0541982 α      lambda       -0.7973606E-05
   maximum displ.:     0.0479693 α      in ANC's #1, #10, #8, ...

........................................................................
.............................. CYCLE   15 ..............................
........................................................................

 iter      E             dE          RMSdq      gap      omega  full diag
   1    -32.0769392 -0.320769E+02  0.244E-02    3.64       0.0  T
   2    -32.0769393 -0.426008E-07  0.143E-02    3.64       1.4  T
   3    -32.0769393  0.133955E-07  0.151E-03    3.64      13.0  T
   4    -32.0769393 -0.214823E-07  0.392E-04    3.64      50.0  T
   5    -32.0769393 -0.127528E-08  0.176E-04    3.64     111.3  T
   6    -32.0769393 -0.351697E-09  0.703E-05    3.64     279.0  T
   7    -32.0769393 -0.759570E-11  0.261E-05    3.64     750.6  T
   8    -32.0769393 -0.401457E-11  0.699E-06    3.64    2806.6  T
   9    -32.0769393 -0.116529E-11  0.305E-06    3.64    6429.2  T
     SCC iter.                  ...        0 min,  0.073 sec
     gradient                   ...        0 min,  0.002 sec
 * total energy  :   -31.5557552 Eh     change       -0.1087358E-04 Eh
   gradient norm :     0.0005380 Eh/α   predicted    -0.3992687E-05 ( -63.28%)
   displ. norm   :     0.0616144 α      lambda       -0.8496142E-05
   maximum displ.:     0.0524494 α      in ANC's #1, #10, #8, ...

........................................................................
.............................. CYCLE   16 ..............................
........................................................................

 iter      E             dE          RMSdq      gap      omega  full diag
   1    -32.0770168 -0.320770E+02  0.267E-02    3.64       0.0  T
   2    -32.0770168 -0.357495E-07  0.157E-02    3.64       1.2  T
   3    -32.0770168  0.124612E-07  0.137E-03    3.64      14.4  T
   4    -32.0770168 -0.211316E-07  0.440E-04    3.64      44.6  T
   5    -32.0770168 -0.209976E-08  0.209E-04    3.64      94.0  T
   6    -32.0770168 -0.472568E-09  0.814E-05    3.64     241.0  T
   7    -32.0770168  0.105160E-11  0.205E-05    3.64     958.8  T
   8    -32.0770168 -0.670752E-11  0.662E-06    3.64    2961.4  T
   9    -32.0770168 -0.675016E-12  0.308E-06    3.64    6377.5  T
     SCC iter.                  ...        0 min,  0.073 sec
     gradient                   ...        0 min,  0.002 sec
 * total energy  :   -31.5557666 Eh     change       -0.1143770E-04 Eh
   gradient norm :     0.0005159 Eh/α   predicted    -0.4256453E-05 ( -62.79%)
   displ. norm   :     0.0621416 α      lambda       -0.7840315E-05
   maximum displ.:     0.0538884 α      in ANC's #1, #3, #10, ...

........................................................................
.............................. CYCLE   17 ..............................
........................................................................

 iter      E             dE          RMSdq      gap      omega  full diag
   1    -32.0770057 -0.320770E+02  0.276E-02    3.64       0.0  T
   2    -32.0770057 -0.394210E-07  0.163E-02    3.64       1.2  T
   3    -32.0770057  0.946045E-08  0.129E-03    3.64      15.3  T
   4    -32.0770057 -0.183018E-07  0.416E-04    3.64      47.1  T
   5    -32.0770057 -0.151102E-08  0.172E-04    3.64     114.3  T
   6    -32.0770057 -0.314756E-09  0.686E-05    3.64     286.0  T
   7    -32.0770057 -0.565592E-11  0.228E-05    3.64     858.4  T
   8    -32.0770057 -0.378009E-11  0.810E-06    3.64    2421.6  T
   9    -32.0770057 -0.160583E-11  0.346E-06    3.64    5661.5  T
     SCC iter.                  ...        0 min,  0.073 sec
     gradient                   ...        0 min,  0.002 sec
 * total energy  :   -31.5557772 Eh     change       -0.1056524E-04 Eh
   gradient norm :     0.0003693 Eh/α   predicted    -0.3929669E-05 ( -62.81%)
   displ. norm   :     0.0549415 α      lambda       -0.6396919E-05
   maximum displ.:     0.0491380 α      in ANC's #1, #3, #6, ...

........................................................................
.............................. CYCLE   18 ..............................
........................................................................

 iter      E             dE          RMSdq      gap      omega  full diag
   1    -32.0770155 -0.320770E+02  0.243E-02    3.64       0.0  T
   2    -32.0770155 -0.244074E-07  0.143E-02    3.64       1.4  T
   3    -32.0770155  0.797077E-08  0.120E-03    3.64      16.4  T
   4    -32.0770155 -0.155135E-07  0.324E-04    3.64      60.5  T
   5    -32.0770155 -0.614982E-09  0.154E-04    3.64     127.2  T
   6    -32.0770155 -0.297234E-09  0.638E-05    3.64     307.6  T
   7    -32.0770155 -0.489564E-11  0.142E-05    3.64    1384.8  T
   8    -32.0770155 -0.309797E-11  0.499E-06    3.64    3926.3  T
   9    -32.0770155 -0.497380E-12  0.206E-06    3.64    9518.7  T
     SCC iter.                  ...        0 min,  0.073 sec
     gradient                   ...        0 min,  0.002 sec
 * total energy  :   -31.5557860 Eh     change       -0.8811999E-05 Eh
   gradient norm :     0.0003458 Eh/α   predicted    -0.3203357E-05 ( -63.65%)
   displ. norm   :     0.0474187 α      lambda       -0.5455865E-05
   maximum displ.:     0.0427382 α      in ANC's #1, #5, #3, ...

........................................................................
.............................. CYCLE   19 ..............................
........................................................................

 iter      E             dE          RMSdq      gap      omega  full diag
   1    -32.0770933 -0.320771E+02  0.206E-02    3.64       0.0  T
   2    -32.0770933 -0.191340E-07  0.121E-02    3.64       1.6  T
   3    -32.0770933  0.523034E-08  0.910E-04    3.64      21.5  T
   4    -32.0770933 -0.947749E-08  0.323E-04    3.64      60.6  T
   5    -32.0770933 -0.115419E-08  0.128E-04    3.64     153.0  T
   6    -32.0770933 -0.196174E-09  0.531E-05    3.64     369.2  T
   7    -32.0770933 -0.277822E-11  0.139E-05    3.64    1406.1  T
   8    -32.0770933 -0.216005E-11  0.467E-06    3.64    4200.3  T
   9    -32.0770933 -0.291323E-12  0.211E-06    3.64    9316.3  T
     SCC iter.                  ...        0 min,  0.073 sec
     gradient                   ...        0 min,  0.002 sec
 * total energy  :   -31.5557938 Eh     change       -0.7801540E-05 Eh
   gradient norm :     0.0002944 Eh/α   predicted    -0.2731008E-05 ( -64.99%)
   displ. norm   :     0.0457410 α      lambda       -0.5568843E-05
   maximum displ.:     0.0416028 α      in ANC's #1, #5, #3, ...

........................................................................
.............................. CYCLE   20 ..............................
........................................................................

 iter      E             dE          RMSdq      gap      omega  full diag
   1    -32.0770765 -0.320771E+02  0.194E-02    3.64       0.0  T
   2    -32.0770765 -0.162687E-07  0.114E-02    3.64       1.7  T
   3    -32.0770765  0.293650E-08  0.840E-04    3.64      23.3  T
   4    -32.0770765 -0.691114E-08  0.292E-04    3.64      67.2  T
   5    -32.0770765 -0.683443E-09  0.120E-04    3.64     163.0  T
   6    -32.0770765 -0.176605E-09  0.518E-05    3.64     378.5  T
   7    -32.0770765 -0.369482E-11  0.106E-05    3.64    1857.9  T
   8    -32.0770765 -0.127187E-11  0.387E-06    3.64    5072.5  T
   9    -32.0770765 -0.291323E-12  0.181E-06    3.64   10830.0  T
     SCC iter.                  ...        0 min,  0.073 sec
     gradient                   ...        0 min,  0.002 sec
 * total energy  :   -31.5558019 Eh     change       -0.8097752E-05 Eh
   gradient norm :     0.0003353 Eh/α   predicted    -0.2788236E-05 ( -65.57%)
   displ. norm   :     0.0524906 α      lambda       -0.6340886E-05
   maximum displ.:     0.0461923 α      in ANC's #1, #5, #4, ...
 * RMSD in coord.:     0.2897912 α      energy gain  -0.3326334E-02 Eh

generating ANC from model Hessian ...
Using Lindh-Hessian (1995)
 Shifting diagonal of input Hessian by   9.209544996949171E-003
 Lowest  eigenvalues of input Hessian
    0.000000    0.000000    0.000000    0.000000    0.000000    0.000000
    0.010000    0.010185    0.010667    0.011270    0.012107    0.012958
    0.015030    0.017699    0.018171    0.019522    0.023634    0.024299
 Highest eigenvalues
    1.364571    1.552229    1.577107    1.881721    1.987963    2.005696
 

........................................................................
.............................. CYCLE   21 ..............................
........................................................................

 iter      E             dE          RMSdq      gap      omega  full diag
   1    -32.0771076 -0.320771E+02  0.209E-02    3.64       0.0  T
   2    -32.0771076 -0.197411E-07  0.123E-02    3.64       1.6  T
   3    -32.0771076  0.421170E-08  0.923E-04    3.64      21.2  T
   4    -32.0771076 -0.853593E-08  0.351E-04    3.64      55.9  T
   5    -32.0771076 -0.114844E-08  0.133E-04    3.64     147.0  T
   6    -32.0771076 -0.218449E-09  0.631E-05    3.64     311.0  T
   7    -32.0771076 -0.720490E-11  0.107E-05    3.64    1840.2  T
   8    -32.0771076 -0.171951E-11  0.418E-06    3.64    4688.7  T
   9    -32.0771076 -0.213163E-12  0.177E-06    3.64   11075.8  T
     SCC iter.                  ...        0 min,  0.073 sec
     gradient                   ...        0 min,  0.002 sec
 * total energy  :   -31.5558111 Eh     change       -0.9166906E-05 Eh
   gradient norm :     0.0003150 Eh/α   predicted     0.0000000E+00 (-100.00%)
   displ. norm   :     0.0268842 α      lambda       -0.1460705E-06
   maximum displ.:     0.0239490 α      in ANC's #1, #2, #6, ...

........................................................................
.............................. CYCLE   22 ..............................
........................................................................

 iter      E             dE          RMSdq      gap      omega  full diag
   1    -32.0770824 -0.320771E+02  0.115E-02    3.64       0.0  T
   2    -32.0770824 -0.127766E-07  0.670E-03    3.64       2.9  T
   3    -32.0770824  0.671626E-09  0.659E-04    3.64      29.8  T
   4    -32.0770825 -0.228084E-08  0.233E-04    3.64      84.0  T
   5    -32.0770825 -0.582816E-09  0.956E-05    3.64     205.2  T
   6    -32.0770825 -0.120600E-09  0.405E-05    3.64     484.2  T
   7    -32.0770825 -0.152767E-11  0.994E-06    3.64    1973.8  T
   8    -32.0770825 -0.107292E-11  0.368E-06    3.64    5329.9  T
     SCC iter.                  ...        0 min,  0.073 sec
     gradient                   ...        0 min,  0.002 sec
 * total energy  :   -31.5558159 Eh     change       -0.4872163E-05 Eh
   gradient norm :     0.0002079 Eh/α   predicted    -0.1749067E-05 ( -64.10%)
   displ. norm   :     0.0402218 α      lambda       -0.4585462E-05
   maximum displ.:     0.0328805 α      in ANC's #1, #2, #6, ...

........................................................................
.............................. CYCLE   23 ..............................
........................................................................

 iter      E             dE          RMSdq      gap      omega  full diag
   1    -32.0770847 -0.320771E+02  0.163E-02    3.64       0.0  T
   2    -32.0770847 -0.126461E-07  0.956E-03    3.64       2.1  T
   3    -32.0770847  0.159751E-07  0.109E-03    3.64      18.0  T
   4    -32.0770847 -0.200270E-07  0.281E-04    3.64      69.8  T
   5    -32.0770847 -0.832387E-09  0.111E-04    3.64     176.9  T
   6    -32.0770847 -0.618883E-10  0.507E-05    3.64     386.5  T
   7    -32.0770847 -0.584066E-11  0.125E-05    3.64    1564.6  T
   8    -32.0770847 -0.101608E-11  0.444E-06    3.64    4412.3  T
   9    -32.0770847 -0.262901E-12  0.170E-06    3.64   11553.6  T
     SCC iter.                  ...        0 min,  0.073 sec
     gradient                   ...        0 min,  0.002 sec
 * total energy  :   -31.5558222 Eh     change       -0.6298864E-05 Eh
   gradient norm :     0.0002635 Eh/α   predicted    -0.2294564E-05 ( -63.57%)
   displ. norm   :     0.0511917 α      lambda       -0.5164983E-05
   maximum displ.:     0.0414339 α      in ANC's #1, #2, #10, ...

........................................................................
.............................. CYCLE   24 ..............................
........................................................................

 iter      E             dE          RMSdq      gap      omega  full diag
   1    -32.0770678 -0.320771E+02  0.208E-02    3.64       0.0  T
   2    -32.0770678 -0.240118E-07  0.122E-02    3.64       1.6  T
   3    -32.0770678  0.164636E-07  0.122E-03    3.64      16.1  T
   4    -32.0770678 -0.213861E-07  0.445E-04    3.64      44.1  T
   5    -32.0770678 -0.269779E-08  0.141E-04    3.64     139.1  T
   6    -32.0770678 -0.168093E-09  0.687E-05    3.64     285.4  T
   7    -32.0770678 -0.105160E-10  0.138E-05    3.64    1419.5  T
   8    -32.0770678 -0.108713E-11  0.506E-06    3.64    3876.2  T
   9    -32.0770678 -0.277112E-12  0.207E-06    3.64    9470.9  T
     SCC iter.                  ...        0 min,  0.073 sec
     gradient                   ...        0 min,  0.002 sec
 * total energy  :   -31.5558294 Eh     change       -0.7148446E-05 Eh
   gradient norm :     0.0002474 Eh/α   predicted    -0.2587196E-05 ( -63.81%)
   displ. norm   :     0.0570145 α      lambda       -0.5256651E-05
   maximum displ.:     0.0457439 α      in ANC's #1, #2, #10, ...

........................................................................
.............................. CYCLE   25 ..............................
........................................................................

 iter      E             dE          RMSdq      gap      omega  full diag
   1    -32.0770784 -0.320771E+02  0.237E-02    3.64       0.0  T
   2    -32.0770785 -0.272981E-07  0.139E-02    3.64       1.4  T
   3    -32.0770784  0.227990E-07  0.135E-03    3.64      14.5  T
   4    -32.0770785 -0.290853E-07  0.461E-04    3.64      42.5  T
   5    -32.0770785 -0.294335E-08  0.146E-04    3.64     134.6  T
   6    -32.0770785 -0.200785E-09  0.744E-05    3.64     263.6  T
   7    -32.0770785 -0.841993E-11  0.153E-05    3.64    1282.9  T
   8    -32.0770785 -0.137135E-11  0.518E-06    3.64    3785.0  T
   9    -32.0770785 -0.383693E-12  0.237E-06    3.64    8269.0  T
     SCC iter.                  ...        0 min,  0.073 sec
     gradient                   ...        0 min,  0.002 sec
 * total energy  :   -31.5558367 Eh     change       -0.7286996E-05 Eh
   gradient norm :     0.0002387 Eh/α   predicted    -0.2633408E-05 ( -63.86%)
   displ. norm   :     0.0577485 α      lambda       -0.4980282E-05
   maximum displ.:     0.0464311 α      in ANC's #1, #2, #5, ...

........................................................................
.............................. CYCLE   26 ..............................
........................................................................

 iter      E             dE          RMSdq      gap      omega  full diag
   1    -32.0770863 -0.320771E+02  0.244E-02    3.64       0.0  T
   2    -32.0770864 -0.323823E-07  0.143E-02    3.64       1.4  T
   3    -32.0770863  0.299724E-07  0.173E-03    3.64      11.3  T
   4    -32.0770864 -0.395085E-07  0.453E-04    3.64      43.3  T
   5    -32.0770864 -0.176374E-08  0.192E-04    3.64     102.0  T
   6    -32.0770864 -0.510973E-09  0.780E-05    3.64     251.3  T
   7    -32.0770864 -0.149143E-10  0.176E-05    3.64    1117.4  T
   8    -32.0770864 -0.144951E-11  0.688E-06    3.64    2849.2  T
   9    -32.0770864 -0.774492E-12  0.221E-06    3.64    8879.2  T
     SCC iter.                  ...        0 min,  0.073 sec
     gradient                   ...        0 min,  0.002 sec
 * total energy  :   -31.5558435 Eh     change       -0.6805147E-05 Eh
   gradient norm :     0.0002466 Eh/α   predicted    -0.2494120E-05 ( -63.35%)
   displ. norm   :     0.0526709 α      lambda       -0.4360975E-05
   maximum displ.:     0.0433236 α      in ANC's #1, #2, #5, ...

........................................................................
.............................. CYCLE   27 ..............................
........................................................................

 iter      E             dE          RMSdq      gap      omega  full diag
   1    -32.0771115 -0.320771E+02  0.230E-02    3.64       0.0  T
   2    -32.0771116 -0.304430E-07  0.134E-02    3.64       1.5  T
   3    -32.0771115  0.167981E-07  0.118E-03    3.64      16.7  T
   4    -32.0771116 -0.206237E-07  0.545E-04    3.64      36.0  T
   5    -32.0771116 -0.510765E-08  0.131E-04    3.64     149.3  T
   6    -32.0771116 -0.139615E-09  0.668E-05    3.64     293.4  T
   7    -32.0771116 -0.347455E-11  0.167E-05    3.64    1172.2  T
   8    -32.0771116 -0.277112E-11  0.576E-06    3.64    3403.4  T
   9    -32.0771116 -0.419220E-12  0.193E-06    3.64   10150.6  T
     SCC iter.                  ...        0 min,  0.073 sec
     gradient                   ...        0 min,  0.002 sec
 * total energy  :   -31.5558494 Eh     change       -0.5912736E-05 Eh
   gradient norm :     0.0001984 Eh/α   predicted    -0.2185200E-05 ( -63.04%)
   displ. norm   :     0.0433827 α      lambda       -0.3471931E-05
   maximum displ.:     0.0368441 α      in ANC's #1, #2, #5, ...

........................................................................
.............................. CYCLE   28 ..............................
........................................................................

 iter      E             dE          RMSdq      gap      omega  full diag
   1    -32.0771316 -0.320771E+02  0.189E-02    3.64       0.0  T
   2    -32.0771316 -0.161463E-07  0.111E-02    3.64       1.8  T
   3    -32.0771316  0.133341E-07  0.111E-03    3.64      17.6  T
   4    -32.0771316 -0.177859E-07  0.312E-04    3.64      63.0  T
   5    -32.0771316 -0.120119E-08  0.126E-04    3.64     155.6  T
   6    -32.0771316 -0.180734E-09  0.502E-05    3.64     390.5  T
   7    -32.0771316 -0.361666E-11  0.119E-05    3.64    1645.0  T
   8    -32.0771316 -0.126477E-11  0.481E-06    3.64    4079.9  T
   9    -32.0771316 -0.426326E-12  0.161E-06    3.64   12158.3  T
     SCC iter.                  ...        0 min,  0.073 sec
     gradient                   ...        0 min,  0.002 sec
 * total energy  :   -31.5558543 Eh     change       -0.4878459E-05 Eh
   gradient norm :     0.0001708 Eh/α   predicted    -0.1741397E-05 ( -64.30%)
   displ. norm   :     0.0377230 α      lambda       -0.3065454E-05
   maximum displ.:     0.0329792 α      in ANC's #1, #2, #5, ...

........................................................................
.............................. CYCLE   29 ..............................
........................................................................

 iter      E             dE          RMSdq      gap      omega  full diag
   1    -32.0771629 -0.320772E+02  0.162E-02    3.64       0.0  T
   2    -32.0771629 -0.976248E-08  0.951E-03    3.64       2.1  T
   3    -32.0771629  0.121433E-07  0.100E-03    3.64      19.6  T
   4    -32.0771629 -0.159256E-07  0.225E-04    3.64      87.1  T
   5    -32.0771629 -0.557876E-09  0.108E-04    3.64     181.4  T
   6    -32.0771629 -0.881997E-10  0.426E-05    3.64     459.9  T
   7    -32.0771629 -0.169820E-11  0.103E-05    3.64    1900.9  T
   8    -32.0771629 -0.188294E-11  0.326E-06    3.64    6008.8  T
   9    -32.0771629 -0.191847E-12  0.139E-06    3.64   14073.3  T
     SCC iter.                  ...        0 min,  0.074 sec
     gradient                   ...        0 min,  0.002 sec
 * total energy  :   -31.5558587 Eh     change       -0.4429066E-05 Eh
   gradient norm :     0.0001619 Eh/α   predicted    -0.1535887E-05 ( -65.32%)
   displ. norm   :     0.0352030 α      lambda       -0.2974159E-05
   maximum displ.:     0.0311392 α      in ANC's #1, #5, #10, ...

........................................................................
.............................. CYCLE   30 ..............................
........................................................................

 iter      E             dE          RMSdq      gap      omega  full diag
   1    -32.0771615 -0.320772E+02  0.147E-02    3.64       0.0  T
   2    -32.0771615 -0.106098E-07  0.866E-03    3.64       2.3  T
   3    -32.0771615  0.396154E-08  0.657E-04    3.64      29.9  T
   4    -32.0771615 -0.589127E-08  0.278E-04    3.64      70.5  T
   5    -32.0771615 -0.110604E-08  0.960E-05    3.64     204.2  T
   6    -32.0771615 -0.676437E-10  0.387E-05    3.64     506.1  T
   7    -32.0771615  0.952127E-12  0.108E-05    3.64    1817.9  T
   8    -32.0771615 -0.223821E-11  0.345E-06    3.64    5677.8  T
   9    -32.0771615 -0.241585E-12  0.127E-06    3.64   15458.7  T
     SCC iter.                  ...        0 min,  0.075 sec
     gradient                   ...        0 min,  0.002 sec
 * total energy  :   -31.5558630 Eh     change       -0.4300132E-05 Eh
   gradient norm :     0.0001646 Eh/α   predicted    -0.1488893E-05 ( -65.38%)
   displ. norm   :     0.0358944 α      lambda       -0.3016015E-05
   maximum displ.:     0.0316529 α      in ANC's #1, #5, #10, ...

........................................................................
.............................. CYCLE   31 ..............................
........................................................................

 iter      E             dE          RMSdq      gap      omega  full diag
   1    -32.0771755 -0.320772E+02  0.145E-02    3.64       0.0  T
   2    -32.0771755 -0.805635E-08  0.855E-03    3.64       2.3  T
   3    -32.0771755  0.358787E-08  0.635E-04    3.64      30.9  T
   4    -32.0771755 -0.568557E-08  0.229E-04    3.64      85.6  T
   5    -32.0771755 -0.689134E-09  0.961E-05    3.64     204.0  T
   6    -32.0771755 -0.622293E-10  0.386E-05    3.64     508.6  T
   7    -32.0771755  0.945022E-12  0.102E-05    3.64    1928.9  T
   8    -32.0771755 -0.220979E-11  0.279E-06    3.64    7029.5  T
   9    -32.0771755 -0.113687E-12  0.118E-06    3.64   16616.2  T
     SCC iter.                  ...        0 min,  0.074 sec
     gradient                   ...        0 min,  0.002 sec
 * total energy  :   -31.5558673 Eh     change       -0.4308403E-05 Eh
   gradient norm :     0.0001464 Eh/α   predicted    -0.1509780E-05 ( -64.96%)
   displ. norm   :     0.0366211 α      lambda       -0.2909955E-05
   maximum displ.:     0.0322519 α      in ANC's #1, #5, #10, ...

........................................................................
.............................. CYCLE   32 ..............................
........................................................................

 iter      E             dE          RMSdq      gap      omega  full diag
   1    -32.0771691 -0.320772E+02  0.148E-02    3.64       0.0  T
   2    -32.0771691 -0.125493E-07  0.869E-03    3.64       2.3  T
   3    -32.0771691  0.174623E-08  0.620E-04    3.64      31.6  T
   4    -32.0771691 -0.385763E-08  0.271E-04    3.64      72.3  T
   5    -32.0771691 -0.852538E-09  0.901E-05    3.64     217.8  T
   6    -32.0771691 -0.602753E-10  0.416E-05    3.64     471.2  T
   7    -32.0771691 -0.859757E-12  0.890E-06    3.64    2203.7  T
   8    -32.0771691 -0.781597E-12  0.337E-06    3.64    5815.0  T
     SCC iter.                  ...        0 min,  0.076 sec
     gradient                   ...        0 min,  0.002 sec
 * total energy  :   -31.5558714 Eh     change       -0.4103661E-05 Eh
   gradient norm :     0.0001462 Eh/α   predicted    -0.1456104E-05 ( -64.52%)
   displ. norm   :     0.0339163 α      lambda       -0.2518240E-05
   maximum displ.:     0.0304136 α      in ANC's #1, #5, #10, ...

........................................................................
.............................. CYCLE   33 ..............................
........................................................................

 iter      E             dE          RMSdq      gap      omega  full diag
   1    -32.0771734 -0.320772E+02  0.139E-02    3.64       0.0  T
   2    -32.0771734 -0.788148E-08  0.812E-03    3.64       2.4  T
   3    -32.0771734  0.782265E-09  0.480E-04    3.64      40.8  T
   4    -32.0771734 -0.242031E-08  0.233E-04    3.64      84.1  T
   5    -32.0771734 -0.649159E-09  0.769E-05    3.64     255.1  T
   6    -32.0771734 -0.322942E-10  0.354E-05    3.64     554.6  T
   7    -32.0771734 -0.994760E-12  0.743E-06    3.64    2640.5  T
   8    -32.0771734 -0.717648E-12  0.283E-06    3.64    6937.1  T
     SCC iter.                  ...        0 min,  0.076 sec
     gradient                   ...        0 min,  0.002 sec
 * total energy  :   -31.5558750 Eh     change       -0.3553341E-05 Eh
   gradient norm :     0.0001400 Eh/α   predicted    -0.1263205E-05 ( -64.45%)
   displ. norm   :     0.0281518 α      lambda       -0.1985399E-05
   maximum displ.:     0.0258196 α      in ANC's #1, #5, #2, ...

........................................................................
.............................. CYCLE   34 ..............................
........................................................................

 iter      E             dE          RMSdq      gap      omega  full diag
   1    -32.0771851 -0.320772E+02  0.118E-02    3.64       0.0  T
   2    -32.0771851 -0.743864E-08  0.692E-03    3.64       2.8  T
   3    -32.0771851  0.868219E-09  0.494E-04    3.64      39.7  T
   4    -32.0771851 -0.229824E-08  0.193E-04    3.64     101.4  T
   5    -32.0771851 -0.377270E-09  0.650E-05    3.64     301.8  T
   6    -32.0771851 -0.401741E-10  0.323E-05    3.64     607.9  T
   7    -32.0771851 -0.188294E-11  0.489E-06    3.64    4007.6  T
   8    -32.0771851 -0.994760E-13  0.196E-06    3.64    9998.4  T
     SCC iter.                  ...        0 min,  0.078 sec
     gradient                   ...        0 min,  0.002 sec
 * total energy  :   -31.5558778 Eh     change       -0.2839080E-05 Eh
   gradient norm :     0.0001255 Eh/α   predicted    -0.9938207E-06 ( -64.99%)
   displ. norm   :     0.0229117 α      lambda       -0.1602430E-05
   maximum displ.:     0.0216905 α      in ANC's #1, #5, #2, ...

........................................................................
.............................. CYCLE   35 ..............................
........................................................................

 iter      E             dE          RMSdq      gap      omega  full diag
   1    -32.0771861 -0.320772E+02  0.100E-02    3.64       0.0  T
   2    -32.0771861 -0.468413E-08  0.588E-03    3.64       3.3  T
   3    -32.0771861  0.384148E-09  0.379E-04    3.64      51.7  T
   4    -32.0771861 -0.134697E-08  0.152E-04    3.64     128.8  T
   5    -32.0771861 -0.221327E-09  0.497E-05    3.64     394.9  T
   6    -32.0771861 -0.274483E-10  0.237E-05    3.64     827.8  T
   7    -32.0771861 -0.130029E-11  0.483E-06    3.64    4064.4  T
   8    -32.0771861 -0.213163E-13  0.187E-06    3.64   10501.5  T
     SCC iter.                  ...        0 min,  0.073 sec
     gradient                   ...        0 min,  0.002 sec
 * total energy  :   -31.5558801 Eh     change       -0.2331279E-05 Eh
   gradient norm :     0.0001233 Eh/α   predicted    -0.8021230E-06 ( -65.59%)
   displ. norm   :     0.0194238 α      lambda       -0.1393593E-05
   maximum displ.:     0.0187966 α      in ANC's #1, #2, #5, ...

........................................................................
.............................. CYCLE   36 ..............................
........................................................................

 iter      E             dE          RMSdq      gap      omega  full diag
   1    -32.0771936 -0.320772E+02  0.875E-03    3.64       0.0  T
   2    -32.0771936 -0.337872E-08  0.514E-03    3.64       3.8  T
   3    -32.0771936  0.277844E-09  0.348E-04    3.64      56.3  T
   4    -32.0771937 -0.106908E-08  0.120E-04    3.64     162.8  T
   5    -32.0771937 -0.105139E-09  0.444E-05    3.64     442.0  T
   6    -32.0771937 -0.232347E-10  0.213E-05    3.64     919.6  T
   7    -32.0771937 -0.937916E-12  0.281E-06    3.64    6980.2  T
   8    -32.0771937 -0.426326E-13  0.118E-06    3.64   16638.5  T
     SCC iter.                  ...        0 min,  0.073 sec
     gradient                   ...        0 min,  0.002 sec
 * total energy  :   -31.5558822 Eh     change       -0.2045937E-05 Eh
   gradient norm :     0.0001197 Eh/α   predicted    -0.6972624E-06 ( -65.92%)
   displ. norm   :     0.0184624 α      lambda       -0.1340076E-05
   maximum displ.:     0.0179087 α      in ANC's #1, #2, #4, ...

........................................................................
.............................. CYCLE   37 ..............................
........................................................................

 iter      E             dE          RMSdq      gap      omega  full diag
   1    -32.0771919 -0.320772E+02  0.859E-03    3.64       0.0  T
   2    -32.0771919 -0.343187E-08  0.505E-03    3.64       3.9  T
   3    -32.0771919  0.316298E-09  0.389E-04    3.64      50.4  T
   4    -32.0771919 -0.111889E-08  0.109E-04    3.64     180.0  T
   5    -32.0771919 -0.533973E-10  0.468E-05    3.64     419.5  T
   6    -32.0771919 -0.249898E-10  0.220E-05    3.64     890.3  T
   7    -32.0771919 -0.136424E-11  0.420E-06    3.64    4667.6  T
   8    -32.0771919  0.000000E+00  0.121E-06    3.64   16151.3  T
     SCC iter.                  ...        0 min,  0.073 sec
     gradient                   ...        0 min,  0.002 sec
 * total energy  :   -31.5558842 Eh     change       -0.1984953E-05 Eh
   gradient norm :     0.0001156 Eh/α   predicted    -0.6724205E-06 ( -66.12%)
   displ. norm   :     0.0191348 α      lambda       -0.1379459E-05
   maximum displ.:     0.0182545 α      in ANC's #1, #4, #10, ...

........................................................................
.............................. CYCLE   38 ..............................
........................................................................

 iter      E             dE          RMSdq      gap      omega  full diag
   1    -32.0771966 -0.320772E+02  0.894E-03    3.64       0.0  T
   2    -32.0771966 -0.384617E-08  0.525E-03    3.64       3.7  T
   3    -32.0771966  0.370214E-09  0.427E-04    3.64      45.9  T
   4    -32.0771966 -0.126957E-08  0.116E-04    3.64     168.7  T
   5    -32.0771966 -0.503633E-10  0.503E-05    3.64     389.6  T
   6    -32.0771966 -0.268372E-10  0.248E-05    3.64     790.6  T
   7    -32.0771966 -0.166978E-11  0.373E-06    3.64    5257.2  T
   8    -32.0771966 -0.284217E-13  0.112E-06    3.64   17541.5  T
     SCC iter.                  ...        0 min,  0.073 sec
     gradient                   ...        0 min,  0.002 sec
 * total energy  :   -31.5558862 Eh     change       -0.2023934E-05 Eh
   gradient norm :     0.0001087 Eh/α   predicted    -0.6908260E-06 ( -65.87%)
   displ. norm   :     0.0207172 α      lambda       -0.1435105E-05
   maximum displ.:     0.0193886 α      in ANC's #1, #10, #4, ...

........................................................................
.............................. CYCLE   39 ..............................
........................................................................

 iter      E             dE          RMSdq      gap      omega  full diag
   1    -32.0771938 -0.320772E+02  0.965E-03    3.64       0.0  T
   2    -32.0771938 -0.458062E-08  0.568E-03    3.64       3.5  T
   3    -32.0771938  0.536765E-09  0.503E-04    3.64      39.0  T
   4    -32.0771938 -0.162856E-08  0.121E-04    3.64     161.6  T
   5    -32.0771938 -0.331823E-10  0.571E-05    3.64     343.8  T
   6    -32.0771938 -0.293525E-10  0.287E-05    3.64     684.4  T
   7    -32.0771938 -0.250111E-11  0.513E-06    3.64    3824.0  T
   8    -32.0771938 -0.135003E-12  0.149E-06    3.64   13142.5  T
     SCC iter.                  ...        0 min,  0.073 sec
     gradient                   ...        0 min,  0.002 sec
 * total energy  :   -31.5558883 Eh     change       -0.2089789E-05 Eh
   gradient norm :     0.0001042 Eh/α   predicted    -0.7185515E-06 ( -65.62%)
   displ. norm   :     0.0219627 α      lambda       -0.1438923E-05
   maximum displ.:     0.0203150 α      in ANC's #1, #10, #4, ...

........................................................................
.............................. CYCLE   40 ..............................
........................................................................

 iter      E             dE          RMSdq      gap      omega  full diag
   1    -32.0771960 -0.320772E+02  0.102E-02    3.64       0.0  T
   2    -32.0771960 -0.519487E-08  0.597E-03    3.64       3.3  T
   3    -32.0771960  0.575390E-09  0.525E-04    3.64      37.3  T
   4    -32.0771960 -0.178317E-08  0.136E-04    3.64     144.4  T
   5    -32.0771960 -0.496172E-10  0.625E-05    3.64     313.8  T
   6    -32.0771960 -0.404370E-10  0.320E-05    3.64     612.2  T
   7    -32.0771960 -0.312639E-11  0.547E-06    3.64    3588.2  T
   8    -32.0771960 -0.206057E-12  0.178E-06    3.64   11033.0  T
     SCC iter.                  ...        0 min,  0.073 sec
     gradient                   ...        0 min,  0.002 sec
 * total energy  :   -31.5558903 Eh     change       -0.2080815E-05 Eh
   gradient norm :     0.0000994 Eh/α   predicted    -0.7201831E-06 ( -65.39%)
   displ. norm   :     0.0220442 α      lambda       -0.1362130E-05
   maximum displ.:     0.0203620 α      in ANC's #1, #10, #4, ...

........................................................................
.............................. CYCLE   41 ..............................
........................................................................

 iter      E             dE          RMSdq      gap      omega  full diag
   1    -32.0771951 -0.320772E+02  0.101E-02    3.64       0.0  T
   2    -32.0771951 -0.513081E-08  0.596E-03    3.64       3.3  T
   3    -32.0771951  0.638337E-09  0.549E-04    3.64      35.7  T
   4    -32.0771951 -0.187055E-08  0.127E-04    3.64     154.2  T
   5    -32.0771951 -0.273417E-10  0.633E-05    3.64     309.7  T
   6    -32.0771951 -0.365148E-10  0.320E-05    3.64     612.7  T
   7    -32.0771951 -0.306244E-11  0.573E-06    3.64    3421.9  T
   8    -32.0771951 -0.170530E-12  0.175E-06    3.64   11227.7  T
     SCC iter.                  ...        0 min,  0.073 sec
     gradient                   ...        0 min,  0.002 sec
 * total energy  :   -31.5558923 Eh     change       -0.1965319E-05 Eh
   gradient norm :     0.0000973 Eh/α   predicted    -0.6815079E-06 ( -65.32%)
   displ. norm   :     0.0210081 α      lambda       -0.1228146E-05
   maximum displ.:     0.0195194 α      in ANC's #1, #3, #10, ...

........................................................................
.............................. CYCLE   42 ..............................
........................................................................

 iter      E             dE          RMSdq      gap      omega  full diag
   1    -32.0771958 -0.320772E+02  0.961E-03    3.64       0.0  T
   2    -32.0771958 -0.445616E-08  0.565E-03    3.64       3.5  T
   3    -32.0771958  0.540304E-09  0.487E-04    3.64      40.3  T
   4    -32.0771958 -0.160384E-08  0.127E-04    3.64     154.3  T
   5    -32.0771958 -0.498375E-10  0.610E-05    3.64     321.3  T
   6    -32.0771958 -0.447500E-10  0.302E-05    3.64     649.9  T
   7    -32.0771958 -0.247979E-11  0.553E-06    3.64    3549.5  T
   8    -32.0771958 -0.277112E-12  0.185E-06    3.64   10620.5  T
     SCC iter.                  ...        0 min,  0.073 sec
     gradient                   ...        0 min,  0.002 sec
 * total energy  :   -31.5558941 Eh     change       -0.1787780E-05 Eh
   gradient norm :     0.0000949 Eh/α   predicted    -0.6145908E-06 ( -65.62%)
   displ. norm   :     0.0191734 α      lambda       -0.1084274E-05
   maximum displ.:     0.0179800 α      in ANC's #1, #3, #10, ...
 * RMSD in coord.:     0.1294718 α      energy gain  -0.9221320E-04 Eh

generating ANC from model Hessian ...
Using Lindh-Hessian (1995)
 Shifting diagonal of input Hessian by   9.231792361500325E-003
 Lowest  eigenvalues of input Hessian
    0.000000    0.000000    0.000000    0.000000    0.000000    0.000000
    0.010000    0.010241    0.010718    0.011282    0.012147    0.013007
    0.015045    0.017719    0.018209    0.019570    0.024018    0.024348
 Highest eigenvalues
    1.364624    1.552473    1.576839    1.881262    1.987775    2.005812
 

........................................................................
.............................. CYCLE   43 ..............................
........................................................................

 iter      E             dE          RMSdq      gap      omega  full diag
   1    -32.0771978 -0.320772E+02  0.869E-03    3.64       0.0  T
   2    -32.0771978 -0.357436E-08  0.511E-03    3.64       3.8  T
   3    -32.0771978  0.405386E-09  0.448E-04    3.64      43.7  T
   4    -32.0771978 -0.128967E-08  0.106E-04    3.64     185.1  T
   5    -32.0771978 -0.226592E-10  0.544E-05    3.64     360.3  T
   6    -32.0771978 -0.312212E-10  0.266E-05    3.64     736.8  T
   7    -32.0771978 -0.184741E-11  0.489E-06    3.64    4012.5  T
   8    -32.0771978 -0.156319E-12  0.160E-06    3.64   12294.3  T
     SCC iter.                  ...        0 min,  0.077 sec
     gradient                   ...        0 min,  0.002 sec
 * total energy  :   -31.5558957 Eh     change       -0.1588744E-05 Eh
   gradient norm :     0.0000923 Eh/α   predicted     0.0000000E+00 (-100.00%)
   displ. norm   :     0.0133734 α      lambda       -0.1674155E-07
   maximum displ.:     0.0131685 α      in ANC's #1, #2, #10, ...

........................................................................
.............................. CYCLE   44 ..............................
........................................................................

 iter      E             dE          RMSdq      gap      omega  full diag
   1    -32.0772032 -0.320772E+02  0.596E-03    3.64       0.0  T
   2    -32.0772032 -0.166138E-08  0.349E-03    3.64       5.6  T
   3    -32.0772032 -0.603890E-10  0.200E-04    3.64      98.2  T
   4    -32.0772032 -0.272181E-09  0.855E-05    3.64     229.5  T
   5    -32.0772032 -0.745146E-10  0.275E-05    3.64     713.5  T
   6    -32.0772032 -0.816414E-11  0.142E-05    3.64    1376.9  T
   7    -32.0772032 -0.774492E-12  0.245E-06    3.64    8010.6  T
   8    -32.0772032 -0.284217E-13  0.954E-07    3.64   20556.4  T
     SCC iter.                  ...        0 min,  0.077 sec
     gradient                   ...        0 min,  0.002 sec
 * total energy  :   -31.5558969 Eh     change       -0.1180568E-05 Eh
   gradient norm :     0.0000988 Eh/α   predicted    -0.4025011E-06 ( -65.91%)
   displ. norm   :     0.0151889 α      lambda       -0.8795731E-06
   maximum displ.:     0.0143134 α      in ANC's #1, #2, #8, ...

........................................................................
.............................. CYCLE   45 ..............................
........................................................................

 iter      E             dE          RMSdq      gap      omega  full diag
   1    -32.0772058 -0.320772E+02  0.670E-03    3.64       0.0  T
   2    -32.0772058 -0.179320E-08  0.394E-03    3.64       5.0  T
   3    -32.0772058  0.844665E-09  0.357E-04    3.64      55.0  T
   4    -32.0772058 -0.139524E-08  0.789E-05    3.64     248.5  T
   5    -32.0772058 -0.403304E-10  0.431E-05    3.64     454.6  T
   6    -32.0772058 -0.197389E-10  0.159E-05    3.64    1230.9  T
   7    -32.0772058 -0.319744E-12  0.488E-06    3.64    4022.0  T
   8    -32.0772058 -0.170530E-12  0.201E-06    3.64    9779.3  T
     SCC iter.                  ...        0 min,  0.077 sec
     gradient                   ...        0 min,  0.002 sec
 * total energy  :   -31.5558982 Eh     change       -0.1309507E-05 Eh
   gradient norm :     0.0000914 Eh/α   predicted    -0.4425250E-06 ( -66.21%)
   displ. norm   :     0.0177808 α      lambda       -0.9899468E-06
   maximum displ.:     0.0160409 α      in ANC's #1, #2, #5, ...

........................................................................
.............................. CYCLE   46 ..............................
........................................................................

 iter      E             dE          RMSdq      gap      omega  full diag
   1    -32.0772070 -0.320772E+02  0.768E-03    3.64       0.0  T
   2    -32.0772070 -0.265305E-08  0.451E-03    3.64       4.3  T
   3    -32.0772070  0.144708E-08  0.387E-04    3.64      50.6  T
   4    -32.0772070 -0.206724E-08  0.131E-04    3.64     149.3  T
   5    -32.0772070 -0.219025E-09  0.511E-05    3.64     383.7  T
   6    -32.0772070 -0.264748E-10  0.198E-05    3.64     991.8  T
   7    -32.0772070 -0.142109E-13  0.633E-06    3.64    3098.7  T
   8    -32.0772070 -0.561329E-12  0.191E-06    3.64   10269.3  T
     SCC iter.                  ...        0 min,  0.077 sec
     gradient                   ...        0 min,  0.002 sec
 * total energy  :   -31.5558996 Eh     change       -0.1446791E-05 Eh
   gradient norm :     0.0000939 Eh/α   predicted    -0.4990201E-06 ( -65.51%)
   displ. norm   :     0.0207306 α      lambda       -0.1091263E-05
   maximum displ.:     0.0181357 α      in ANC's #1, #2, #5, ...

........................................................................
.............................. CYCLE   47 ..............................
........................................................................

 iter      E             dE          RMSdq      gap      omega  full diag
   1    -32.0771984 -0.320772E+02  0.881E-03    3.64       0.0  T
   2    -32.0771984 -0.443546E-08  0.515E-03    3.64       3.8  T
   3    -32.0771984  0.131578E-08  0.446E-04    3.64      43.9  T
   4    -32.0771984 -0.207694E-08  0.177E-04    3.64     110.8  T
   5    -32.0771984 -0.395282E-09  0.611E-05    3.64     320.9  T
   6    -32.0771984 -0.419078E-10  0.239E-05    3.64     818.9  T
   7    -32.0771984 -0.419220E-12  0.685E-06    3.64    2863.1  T
   8    -32.0771984 -0.362377E-12  0.272E-06    3.64    7209.7  T
     SCC iter.                  ...        0 min,  0.077 sec
     gradient                   ...        0 min,  0.002 sec
 * total energy  :   -31.5559012 Eh     change       -0.1583758E-05 Eh
   gradient norm :     0.0000946 Eh/α   predicted    -0.5489578E-06 ( -65.34%)
   displ. norm   :     0.0223384 α      lambda       -0.1113550E-05
   maximum displ.:     0.0193360 α      in ANC's #1, #2, #5, ...

........................................................................
.............................. CYCLE   48 ..............................
........................................................................

 iter      E             dE          RMSdq      gap      omega  full diag
   1    -32.0772084 -0.320772E+02  0.949E-03    3.64       0.0  T
   2    -32.0772084 -0.386681E-08  0.558E-03    3.64       3.5  T
   3    -32.0772084  0.233369E-08  0.462E-04    3.64      42.5  T
   4    -32.0772084 -0.327840E-08  0.153E-04    3.64     128.1  T
   5    -32.0772084 -0.330360E-09  0.599E-05    3.64     327.4  T
   6    -32.0772084 -0.361950E-10  0.247E-05    3.64     795.3  T
   7    -32.0772084  0.852651E-13  0.712E-06    3.64    2752.7  T
   8    -32.0772084 -0.881073E-12  0.223E-06    3.64    8810.8  T
     SCC iter.                  ...        0 min,  0.075 sec
     gradient                   ...        0 min,  0.002 sec
 * total energy  :   -31.5559028 Eh     change       -0.1618147E-05 Eh
   gradient norm :     0.0000858 Eh/α   predicted    -0.5608326E-06 ( -65.34%)
   displ. norm   :     0.0223782 α      lambda       -0.1064411E-05
   maximum displ.:     0.0194054 α      in ANC's #1, #2, #5, ...

........................................................................
.............................. CYCLE   49 ..............................
........................................................................

 iter      E             dE          RMSdq      gap      omega  full diag
   1    -32.0772128 -0.320772E+02  0.954E-03    3.64       0.0  T
   2    -32.0772128 -0.349943E-08  0.560E-03    3.64       3.5  T
   3    -32.0772128  0.268667E-08  0.501E-04    3.64      39.1  T
   4    -32.0772128 -0.372341E-08  0.144E-04    3.64     136.1  T
   5    -32.0772128 -0.269139E-09  0.609E-05    3.64     322.2  T
   6    -32.0772128 -0.374953E-10  0.256E-05    3.64     767.1  T
   7    -32.0772128 -0.397904E-12  0.575E-06    3.64    3412.8  T
   8    -32.0772128 -0.646594E-12  0.188E-06    3.64   10429.5  T
     SCC iter.                  ...        0 min,  0.073 sec
     gradient                   ...        0 min,  0.002 sec
 * total energy  :   -31.5559044 Eh     change       -0.1549626E-05 Eh
   gradient norm :     0.0000854 Eh/α   predicted    -0.5346905E-06 ( -65.50%)
   displ. norm   :     0.0212417 α      lambda       -0.9791955E-06
   maximum displ.:     0.0185909 α      in ANC's #1, #2, #5, ...

........................................................................
.............................. CYCLE   50 ..............................
........................................................................

 iter      E             dE          RMSdq      gap      omega  full diag
   1    -32.0772112 -0.320772E+02  0.914E-03    3.64       0.0  T
   2    -32.0772112 -0.372949E-08  0.537E-03    3.64       3.7  T
   3    -32.0772112  0.145904E-08  0.407E-04    3.64      48.2  T
   4    -32.0772112 -0.223535E-08  0.155E-04    3.64     126.5  T
   5    -32.0772112 -0.336890E-09  0.565E-05    3.64     347.3  T
   6    -32.0772112 -0.308162E-10  0.236E-05    3.64     830.4  T
   7    -32.0772112  0.355271E-13  0.562E-06    3.64    3486.7  T
   8    -32.0772112 -0.717648E-12  0.179E-06    3.64   10926.7  T
     SCC iter.                  ...        0 min,  0.073 sec
     gradient                   ...        0 min,  0.004 sec
 * total energy  :   -31.5559058 Eh     change       -0.1433494E-05 Eh
   gradient norm :     0.0000815 Eh/α   predicted    -0.4905384E-06 ( -65.78%)
   displ. norm   :     0.0195875 α      lambda       -0.8837270E-06
   maximum displ.:     0.0173704 α      in ANC's #1, #2, #5, ...

........................................................................
.............................. CYCLE   51 ..............................
........................................................................

 iter      E             dE          RMSdq      gap      omega  full diag
   1    -32.0772176 -0.320772E+02  0.854E-03    3.64       0.0  T
   2    -32.0772176 -0.274797E-08  0.501E-03    3.64       3.9  T
[...]
         :: total charge               0.000000000000 e     ::
         :::::::::::::::::::::::::::::::::::::::::::::::::::::

           ------------------------------------------------- 
          |                Numerical Hessian                |
           ------------------------------------------------- 
step length          :   0.00500
SCC accuracy         :   0.30000
Hessian scale factor :   1.00000
frozen atoms in %    :   0.00000    0
RMS gradient         :   0.00003
estimated CPU  time      1.14 min
estimated wall time      0.14 min

writing file <hessian>.

 projected vibrational frequencies (cm⁻¹)
eigval :       -0.00    -0.00     0.00     0.00     0.00     0.00
eigval :       27.85    69.58    80.71   127.18   129.20   199.54
eigval :      204.14   227.80   261.24   277.07   283.95   356.60
eigval :      363.06   406.97   472.80   585.92   638.49   657.12
eigval :      683.24   704.71   729.27   746.97   791.35   871.17
eigval :      894.52   925.11   931.18   968.64   974.30   998.56
eigval :     1012.29  1021.85  1065.60  1072.83  1085.79  1115.62
eigval :     1123.24  1181.86  1203.22  1225.67  1227.94  1250.93
eigval :     1266.81  1282.20  1316.98  1408.57  1410.71  1421.73
eigval :     1450.90  1454.82  1461.79  1497.37  1501.00  1504.77
eigval :     1508.55  1577.59  1589.08  2939.02  2942.47  2949.58
eigval :     2960.62  3011.29  3013.25  3023.92  3024.75  3034.27
eigval :     3039.02  3058.24  3068.34  3074.72  3087.10  3094.13
           -------------------------------------------------
          |                Property Printout                |
           -------------------------------------------------

    * Orbital Energies and Occupations

         #    Occupation            Energy/Eh            Energy/eV
      -------------------------------------------------------------
         1        2.0000           -0.6587463             -17.9254
       ...           ...                  ...                  ...
        18        2.0000           -0.4770705             -12.9817
        19        2.0000           -0.4740235             -12.8988
        20        2.0000           -0.4689951             -12.7620
        21        2.0000           -0.4616153             -12.5612
        22        2.0000           -0.4527150             -12.3190
        23        2.0000           -0.4451189             -12.1123
        24        2.0000           -0.4393340             -11.9549
        25        2.0000           -0.4246545             -11.5554
        26        2.0000           -0.4144228             -11.2770
        27        2.0000           -0.4077663             -11.0959
        28        2.0000           -0.4028304             -10.9616
        29        2.0000           -0.4006647             -10.9026
        30        2.0000           -0.3635791              -9.8935 (HOMO)
        31                         -0.2298781              -6.2553 (LUMO)
        32                         -0.2215451              -6.0285
        33                         -0.1543608              -4.2004
        34                         -0.1499708              -4.0809
        35                         -0.0933421              -2.5400
        36                          0.0102589               0.2792
        37                          0.0443806               1.2077
        38                          0.1065183               2.8985
        39                          0.1120440               3.0489
        40                          0.1164243               3.1681
        41                          0.1320897               3.5943
       ...                                ...                  ...
        64                          0.7999806              21.7686
      -------------------------------------------------------------
                  HL-Gap            0.1337010 Eh            3.6382 eV
             Fermi-level           -0.2967286 Eh           -8.0744 eV

     #   Z          covCN         q      C6AA      α(0)
     1  15 P        3.021    -0.113   165.377    23.102
     2   6 C        3.748    -0.045    21.450     6.606
     3   1 H        0.925     0.047     2.362     2.403
     4   1 H        0.926     0.041     2.441     2.443
     5   6 C        3.819    -0.097    22.332     6.725
     6   1 H        0.925     0.037     2.489     2.467
     7   1 H        0.925     0.041     2.431     2.438
     8   1 H        0.925     0.032     2.556     2.500
     9   6 C        2.915     0.010    27.790     8.645
    10   6 C        3.022    -0.030    28.726     8.792
    11   6 C        2.961    -0.033    28.832     8.807
    12   6 C        2.918    -0.030    28.753     8.793
    13   6 C        2.919    -0.031    28.768     8.796
    14   6 C        2.920    -0.031    28.776     8.797
    15   1 H        0.925     0.034     2.531     2.488
    16   1 H        0.926     0.033     2.549     2.497
    17   1 H        0.926     0.029     2.603     2.523
    18   1 H        0.926     0.028     2.617     2.530
    19   1 H        0.926     0.028     2.611     2.527
    20   6 C        3.748    -0.044    21.428     6.602
    21   1 H        0.926     0.041     2.439     2.442
    22   1 H        0.926     0.042     2.423     2.434
    23   6 C        3.780    -0.094    22.320     6.730
    24   1 H        0.925     0.038     2.479     2.462
    25   1 H        0.925     0.037     2.483     2.464
    26   1 H        0.925     0.032     2.560     2.502

 Mol. C6AA /au·bohr⁶  :       7601.041595
 Mol. C8AA /au·bohr⁸  :     202605.790829
 Mol. α(0) /au        :        139.516387


Wiberg/Mayer (AO) data.
largest (>0.10) Wiberg bond orders for each atom

 ---------------------------------------------------------------------------
     #   Z sym  total        # sym  WBO       # sym  WBO       # sym  WBO
 ---------------------------------------------------------------------------
     1  15 P    3.378 --     2 C    1.028     9 C    1.019    20 C    1.014
     2   6 C    3.995 --     1 P    1.028     5 C    1.015     4 H    0.956
                             3 H    0.951
     3   1 H    0.998 --     2 C    0.951
     4   1 H    0.998 --     2 C    0.956
     5   6 C    3.996 --     2 C    1.015     8 H    0.985     7 H    0.984
                             6 H    0.984
     6   1 H    0.999 --     5 C    0.984
     7   1 H    0.998 --     5 C    0.984
     8   1 H    0.999 --     5 C    0.985
     9   6 C    3.982 --    11 C    1.402    10 C    1.390     1 P    1.019
                            14 C    0.106
    10   6 C    3.992 --    12 C    1.457     9 C    1.390    15 H    0.962
                            13 C    0.110
    11   6 C    3.993 --    13 C    1.440     9 C    1.402    16 H    0.963
                            12 C    0.107
    12   6 C    3.992 --    10 C    1.457    14 C    1.428    17 H    0.970
                            11 C    0.107
    13   6 C    3.993 --    14 C    1.441    11 C    1.440    18 H    0.970
                            10 C    0.110
    14   6 C    3.991 --    13 C    1.441    12 C    1.428    19 H    0.971
                             9 C    0.106
    15   1 H    0.999 --    10 C    0.962
    16   1 H    0.999 --    11 C    0.963
    17   1 H    0.999 --    12 C    0.970
    18   1 H    0.999 --    13 C    0.970
    19   1 H    0.998 --    14 C    0.971
    20   6 C    3.994 --     1 P    1.014    23 C    1.012    21 H    0.956
                            22 H    0.954
    21   1 H    0.998 --    20 C    0.956
    22   1 H    0.998 --    20 C    0.954
    23   6 C    3.997 --    20 C    1.012    24 H    0.984    26 H    0.983
                            25 H    0.983
    24   1 H    0.999 --    23 C    0.984
    25   1 H    0.999 --    23 C    0.983
    26   1 H    0.999 --    23 C    0.983
 ---------------------------------------------------------------------------

Topologies differ in total number of bonds
Writing topology from bond orders to xtbtopo.mol

molecular dipole:
                 x           y           z       tot (Debye)
 q only:        0.298      -0.066      -0.168
   full:        0.588       0.129      -0.279       1.686
molecular quadrupole (traceless):
                xx          xy          yy          xz          yz          zz
 q only:        1.155      -1.106      -1.948      -2.189       0.550       0.793
  q+dip:        1.988      -0.938      -2.183      -1.839      -0.501       0.194
   full:        1.775      -1.168      -3.019      -3.645      -0.572       1.244

           -------------------------------------------------
          |                Geometry Summary                 |
           -------------------------------------------------

      molecular mass/u    :      166.2002322
   center of mass at/Å    :        2.1455969       1.0466045      -2.9964118
  moments of inertia/u·Å² :        0.2862882E+03   0.8250020E+03   0.9286001E+03
rotational constants/cm⁻¹ :        0.5888344E-01   0.2043344E-01   0.1815381E-01

 * 24 selected distances

     #   Z          #   Z                                           value/Å
     1  15 P        2   6 C                                       1.8644622 (max)
     2   6 C        3   1 H                                       1.0924296
     2   6 C        4   1 H                                       1.0940486
     2   6 C        5   6 C                                       1.5234482
     5   6 C        6   1 H                                       1.0877839
     5   6 C        7   1 H                                       1.0884972
     5   6 C        8   1 H                                       1.0890243
     9   6 C       10   6 C                                       1.3938390
     9   6 C       11   6 C                                       1.3897388
    10   6 C       12   6 C                                       1.3809467
    11   6 C       13   6 C                                       1.3845774
    12   6 C       14   6 C                                       1.3856139
    13   6 C       14   6 C                                       1.3835633
    10   6 C       15   1 H                                       1.0816982
    11   6 C       16   1 H                                       1.0792812 (min)
    12   6 C       17   1 H                                       1.0806292
    13   6 C       18   1 H                                       1.0808641
    14   6 C       19   1 H                                       1.0801519
    20   6 C       21   1 H                                       1.0934543
    20   6 C       22   1 H                                       1.0934926
    20   6 C       23   6 C                                       1.5222214
    23   6 C       24   1 H                                       1.0872286
    23   6 C       25   1 H                                       1.0887962
    23   6 C       26   1 H                                       1.0891415

 * 3 distinct bonds (by element types)

   Z      Z             #   av. dist./Å        max./Å        min./Å
   1 H    6 C          15     1.0871014     1.0940486     1.0792812
   6 C    6 C           8     1.4204936     1.5234482     1.3809467
   6 C   15 P           1     1.8644622     1.8644622     1.8644622

           -------------------------------------------------
          |               Frequency Printout                |
           -------------------------------------------------
 projected vibrational frequencies (cm⁻¹)
eigval :       -0.00    -0.00     0.00     0.00     0.00     0.00
eigval :       27.85    69.58    80.71   127.18   129.20   199.54
eigval :      204.14   227.80   261.24   277.07   283.95   356.60
eigval :      363.06   406.97   472.80   585.92   638.49   657.12
eigval :      683.24   704.71   729.27   746.97   791.35   871.17
eigval :      894.52   925.11   931.18   968.64   974.30   998.56
eigval :     1012.29  1021.85  1065.60  1072.83  1085.79  1115.62
eigval :     1123.24  1181.86  1203.22  1225.67  1227.94  1250.93
eigval :     1266.81  1282.20  1316.98  1408.57  1410.71  1421.73
eigval :     1450.90  1454.82  1461.79  1497.37  1501.00  1504.77
eigval :     1508.55  1577.59  1589.08  2939.02  2942.47  2949.58
eigval :     2960.62  3011.29  3013.25  3023.92  3024.75  3034.27
eigval :     3039.02  3058.24  3068.34  3074.72  3087.10  3094.13
 reduced masses (amu)
   1: 12.11   2: 11.49   3: 15.14   4: 13.84   5: 13.77   6: 11.31   7:  9.93   8:  9.13
   9:  9.64  10:  6.23  11: 10.91  12:  7.42  13:  3.31  14:  9.52  15:  6.43  16:  9.89
  17: 11.24  18: 13.76  19:  9.08  20: 19.02  21: 13.16  22: 11.18  23: 13.87  24: 10.50
  25: 12.57  26: 15.64  27:  4.47  28:  5.43  29:  4.04  30:  3.33  31:  3.58  32:  4.15
  33:  2.98  34: 10.13  35:  3.64  36:  3.15  37:  3.71  38:  3.91  39:  9.51  40:  9.32
  41:  8.37  42:  8.48  43:  4.43  44:  1.30  45:  1.99  46:  3.62  47:  3.30  48:  4.17
  49:  4.15  50:  3.36  51: 11.92  52:  2.93  53:  2.95  54:  8.59  55:  4.52  56:  2.40
  57:  5.24  58:  1.55  59:  1.54  60:  1.54  61:  1.56  62: 11.43  63: 11.44  64:  1.97
  65:  1.97  66:  1.49  67:  1.49  68:  1.87  69:  1.87  70:  1.72  71:  1.87  72:  1.41
  73:  1.55  74:  1.79  75:  1.77  76:  1.83  77:  1.88  78:  1.86
 IR intensities (km·mol⁻¹)
   1:  0.04   2:  0.10   3:  0.00   4:  0.12   5:  0.20   6:  0.11   7:  0.13   8:  0.04
   9:  0.18  10:  0.52  11:  0.09  12:  0.13  13:  0.10  14:  0.13  15:  0.15  16:  0.28
  17:  0.44  18:  0.35  19:  0.04  20:  1.68  21:  4.74  22:  0.06  23: 10.58  24:  2.98
  25:  0.14  26: 26.57  27: 34.86  28: 18.64  29: 19.54  30:  0.20  31:  0.01  32:  0.04
  33:  0.00  34:  2.29  35:  1.19  36:  2.16  37:  1.81  38:  8.98  39: 10.14  40:  7.07
  41:  0.05  42:  1.22  43:  0.12  44:  0.02  45:  0.84  46:  2.31  47:  4.08  48:  3.99
  49:  5.47  50:  0.29  51:  0.40  52:  1.43  53:  2.23  54:  0.79  55:  0.79  56:  1.14
  57:  0.21  58:  3.96  59:  0.69  60:  0.84  61:  1.14  62:  0.46  63:  5.34  64: 20.65
  65: 21.15  66:  8.84  67: 22.30  68: 51.29  69: 51.56  70: 23.17  71: 29.44  72: 24.62
  73: 21.48  74: 14.46  75:  5.71  76: 51.90  77: 77.47  78: 27.33
 Raman intensities (Ä⁴*amu⁻¹)
   1:  0.00   2:  0.00   3:  0.00   4:  0.00   5:  0.00   6:  0.00   7:  0.00   8:  0.00
   9:  0.00  10:  0.00  11:  0.00  12:  0.00  13:  0.00  14:  0.00  15:  0.00  16:  0.00
  17:  0.00  18:  0.00  19:  0.00  20:  0.00  21:  0.00  22:  0.00  23:  0.00  24:  0.00
  25:  0.00  26:  0.00  27:  0.00  28:  0.00  29:  0.00  30:  0.00  31:  0.00  32:  0.00
  33:  0.00  34:  0.00  35:  0.00  36:  0.00  37:  0.00  38:  0.00  39:  0.00  40:  0.00
  41:  0.00  42:  0.00  43:  0.00  44:  0.00  45:  0.00  46:  0.00  47:  0.00  48:  0.00
  49:  0.00  50:  0.00  51:  0.00  52:  0.00  53:  0.00  54:  0.00  55:  0.00  56:  0.00
  57:  0.00  58:  0.00  59:  0.00  60:  0.00  61:  0.00  62:  0.00  63:  0.00  64:  0.00
  65:  0.00  66:  0.00  67:  0.00  68:  0.00  69:  0.00  70:  0.00  71:  0.00  72:  0.00
  73:  0.00  74:  0.00  75:  0.00  76:  0.00  77:  0.00  78:  0.00
 output can be read by thermo (or use thermo option).
 writing <g98.out> molden fake output.
 recommended (thermochemical) frequency scaling factor: 1.0
           -------------------------------------------------
          |             Thermodynamic Functions             |
           -------------------------------------------------

Molecule has no symmetry elements
It seems to be the C1 point group
c1  symmetry found (for desy threshold:  0.10E+00) used in thermo

          ...................................................
          :                      SETUP                      :
          :.................................................:
          :  # frequencies                          72      :
          :  # imaginary freq.                       0      :
          :  linear?                             false      :
          :  only rotor calc.                    false      :
          :  symmetry                               c1      :
          :  rotational number                       1      :
          :  scaling factor                  1.0000000      :
          :  rotor cutoff                   50.0000000 cm⁻¹ :
          :  imag. cutoff                  -20.0000000 cm⁻¹ :
          :.................................................:

    mode    ω/cm⁻¹     T·S(HO)/kcal·mol⁻¹    T·S(FR)/kcal·mol⁻¹   T·S(vib)
   ------------------------------------------------------------------------
       1     27.85    -1.78199 (  8.78%)    -1.22963 ( 91.22%)    -1.27814
       2     69.58    -1.24188 ( 78.94%)    -0.95857 ( 21.06%)    -1.18223
       3     80.71    -1.15492 ( 87.16%)    -0.91462 ( 12.84%)    -1.12407
       4    127.18    -0.89094 ( 97.67%)    -0.77992 (  2.33%)    -0.88835
       5    129.20    -0.88192 ( 97.81%)    -0.77527 (  2.19%)    -0.87958
       6    199.54    -0.63725 ( 99.61%)    -0.64652 (  0.39%)    -0.63729
       7    204.14    -0.62477 ( 99.64%)    -0.63977 (  0.36%)    -0.62482
       8    227.80    -0.56536 ( 99.77%)    -0.60729 (  0.23%)    -0.56546
       9    261.24    -0.49298 ( 99.87%)    -0.56671 (  0.13%)    -0.49307
      10    277.07    -0.46264 ( 99.89%)    -0.54929 (  0.11%)    -0.46273
      11    283.95    -0.45014 ( 99.90%)    -0.54202 (  0.10%)    -0.45022
   ------------------------------------------------------------------------

   temp. (K)  partition function   enthalpy   heat capacity  entropy
                                   cal/mol     cal/K/mol   cal/K/mol   J/K/mol
 298.15  VIB  0.120E+05             6094.747     39.513     37.092
         ROT  0.113E+07              888.752      2.981     30.681
         INT  0.135E+11             6983.499     42.494     67.773
         TR   0.207E+28             1481.254      4.968     41.214
         TOT                        8464.7534    47.4625   108.9865   455.9995

       T/K    H(0)-H(T)+PV         H(T)/Eh          T*S/Eh         G(T)/Eh
   ------------------------------------------------------------------------
    298.15    0.134894E-01    0.232532E+00    0.517830E-01    0.180749E+00
   ------------------------------------------------------------------------

         :::::::::::::::::::::::::::::::::::::::::::::::::::::
         ::                  THERMODYNAMIC                  ::
         :::::::::::::::::::::::::::::::::::::::::::::::::::::
         :: total free energy         -31.375177457953 Eh   ::
         ::.................................................::
         :: total energy              -31.555926506742 Eh   ::
         :: zero point energy           0.219042605990 Eh   ::
         :: G(RRHO) w/o ZPVE           -0.038293557201 Eh   ::
         :: G(RRHO) contrib.            0.180749048789 Eh   ::
         :::::::::::::::::::::::::::::::::::::::::::::::::::::

optimized geometry written to: xtbopt.xyz


           -------------------------------------------------
          | TOTAL ENERGY              -31.555926506742 Eh   |
          | TOTAL ENTHALPY            -31.323394457614 Eh   |
          | TOTAL FREE ENERGY         -31.375177457953 Eh   |
          | GRADIENT NORM               0.000031166137 Eh/α |
          | HOMO-LUMO GAP               3.638188105138 eV   |
           -------------------------------------------------

------------------------------------------------------------------------
 * finished run on 2025/07/14 at 11:39:11.328     
------------------------------------------------------------------------
 total:
 * wall-time:     0 d,  0 h,  0 min, 12.843 sec
 *  cpu-time:     0 d,  0 h,  2 min, 19.846 sec
 * ratio c/w:    10.889 speedup
 SCF:
 * wall-time:     0 d,  0 h,  0 min,  0.087 sec
 *  cpu-time:     0 d,  0 h,  0 min,  1.036 sec
 * ratio c/w:    11.904 speedup
 ANC optimizer:
 * wall-time:     0 d,  0 h,  0 min,  9.453 sec
 *  cpu-time:     0 d,  0 h,  1 min, 52.170 sec
 * ratio c/w:    11.866 speedup
 analytical hessian:
 * wall-time:     0 d,  0 h,  0 min,  3.293 sec
 *  cpu-time:     0 d,  0 h,  0 min, 26.550 sec
 * ratio c/w:     8.062 speedup

