      -----------------------------------------------------------      
     |                   =====================                   |     
     |                           x T B                           |     
     |                   =====================                   |     
     |                         S. Grimme                         |     
     |          Mulliken Center for Theoretical Chemistry        |     
     |                    University of Bonn                     |     
      -----------------------------------------------------------      

   * xtb version 6.7.0 (08769fc) compiled by 'albert@albert-system' on 2024-03-04

   xtb is free software: you can redistribute it and/or modify it under
   the terms of the GNU Lesser General Public License as published by
   the Free Software Foundation, either version 3 of the License, or
   (at your option) any later version.
   
   xtb is distributed in the hope that it will be useful,
   but WITHOUT ANY WARRANTY; without even the implied warranty of
   MERCHANTABILITY or FITNESS FOR A PARTICULAR PURPOSE.  See the
   GNU Lesser General Public License for more details.
   
   Cite this work as:
   * C. Bannwarth, E. Caldeweyher, S. Ehlert, A. Hansen, P. Pracht,
     J. Seibert, S. Spicher, S. Grimme, WIREs Comput. Mol. Sci., 2020, 11,
     e01493. DOI: 10.1002/wcms.1493
   
   for GFN2-xTB:
   * C. Bannwarth, S. Ehlert and S. Grimme., J. Chem. Theory Comput., 2019,
     15, 1652-1671. DOI: 10.1021/acs.jctc.8b01176
   for GFN1-xTB:
   * S. Grimme, C. Bannwarth, P. Shushkov, J. Chem. Theory Comput., 2017,
     13, 1989-2009. DOI: 10.1021/acs.jctc.7b00118
   for GFN0-xTB:
   * P. Pracht, E. Caldeweyher, S. Ehlert, S. Grimme, ChemRxiv, 2019, preprint.
     DOI: 10.26434/chemrxiv.8326202.v1
   for GFN-FF:
   * S. Spicher and S. Grimme, Angew. Chem. Int. Ed., 2020, 59, 15665-15673.
     DOI: 10.1002/anie.202004239
   
   for ALPB and GBSA implicit solvation:
   * S. Ehlert, M. Stahn, S. Spicher, S. Grimme, J. Chem. Theory Comput.,
     2021, 17, 4250-4261. DOI: 10.1021/acs.jctc.1c00471
   
   for ddCOSMO and CPCM-X implicit solvation:
   * M. Stahn, S. Ehlert, S. Grimme, J. Phys. Chem. A,
     2023, XX, XXXX-XXXX. DOI: 10.1021/acs.jpca.3c04382
   
   for DFT-D4:
   * E. Caldeweyher, C. Bannwarth and S. Grimme, J. Chem. Phys., 2017,
     147, 034112. DOI: 10.1063/1.4993215
   * E. Caldeweyher, S. Ehlert, A. Hansen, H. Neugebauer, S. Spicher,
     C. Bannwarth and S. Grimme, J. Chem. Phys., 2019, 150, 154122.
     DOI: 10.1063/1.5090222
   * E. Caldeweyher, J.-M. Mewes, S. Ehlert and S. Grimme, Phys. Chem. Chem. Phys.
     2020, 22, 8499-8512. DOI: 10.1039/D0CP00502A
   
   for sTDA-xTB:
   * S. Grimme and C. Bannwarth, J. Chem. Phys., 2016, 145, 054103.
     DOI: 10.1063/1.4959605
   
   in the mass-spec context:
   * V. Asgeirsson, C. Bauer and S. Grimme, Chem. Sci., 2017, 8, 4879.
     DOI: 10.1039/c7sc00601b
   * J. Koopman and S. Grimme, ACS Omega 2019, 4, 12, 15120-15133.
     DOI: 10.1021/acsomega.9b02011
   
   for metadynamics refer to:
   * S. Grimme, J. Chem. Theory Comput., 2019, 155, 2847-2862
     DOI: 10.1021/acs.jctc.9b00143
   
   for SPH calculations refer to:
   * S. Spicher and S. Grimme, J. Chem. Theory Comput., 2021, 17, 1701-1714
     DOI: 10.1021/acs.jctc.0c01306
   
   for ONIOM refer to:
   * C. Plett, A. Katbashev, S. Ehlert, S. Grimme, M. Bursch,
     Phys. Chem. Chem. Phys., 2023, 25, 17860-17868. DOI: 10.1039/D3CP02178E
   
   for DIPRO refer to:
   * J. Kohn, N. Gildemeister, S. Grimme, D. Fazzi, A. Hansen,
     J. Chem. Phys., 2023, just accepted.
   
   for PTB refer to:
   * S. Grimme, M. Mueller, A. Hansen, J. Chem. Phys., 2023, 158, 124111.
     DOI: 10.1063/5.0137838
   
   with help from (in alphabetical order)
   P. Atkinson, C. Bannwarth, F. Bohle, G. Brandenburg, E. Caldeweyher
   M. Checinski, S. Dohm, S. Ehlert, S. Ehrlich, I. Gerasimov, C. Hölzer
   A. Katbashev, J. Kohn, J. Koopman, C. Lavigne, S. Lehtola, F. März, M. Müller,
   F. Musil, H. Neugebauer, J. Pisarek, C. Plett, P. Pracht, F. Pultar,
   J. Seibert, P. Shushkov, S. Spicher, M. Stahn, M. Steiner, T. Strunk,
   J. Stückrath, T. Rose, and J. Unsleber
   
 * started run on 2025/07/14 at 11:34:40.418     
   ID    Z sym.   atoms
    1   15 P      1
    2    6 C      2, 5, 9-14, 20, 23
    3    1 H      3, 4, 6-8, 15-19, 21, 22, 24-26

           -------------------------------------------------
          |                Calculation Setup                |
           -------------------------------------------------

          program call               : /home/minenky/programs/xtb/xtb-dist/bin/xtb m1_00_PEt2Ph-PBE0-D3-TZ-uniMM_53.xyz --charge 0 --T --ohess extreme --cycles 5000 --acc 0.01 --iterations 5000
          coordinate file            : m1_00_PEt2Ph-PBE0-D3-TZ-uniMM_53.xyz
          omp threads                :                    12

########################################################################
[WARNING] Please study the warnings concerning your input carefully
-1- prog_main_parseArguments: Unknown option '--T' provided
########################################################################

           -------------------------------------------------
          |                 G F N 2 - x T B                 |
           -------------------------------------------------

        Reference                      10.1021/acs.jctc.8b01176
      * Hamiltonian:
        H0-scaling (s, p, d)           1.850000    2.230000    2.230000
        zeta-weighting                 0.500000
      * Dispersion:
        s8                             2.700000
        a1                             0.520000
        a2                             5.000000
        s9                             5.000000
      * Repulsion:
        kExp                           1.500000    1.000000
        rExp                           1.000000
      * Coulomb:
        alpha                          2.000000
        third order                    shell-resolved
        anisotropic                    true
        a3                             3.000000
        a5                             4.000000
        cn-shift                       1.200000
        cn-exp                         4.000000
        max-rad                        5.000000


          ...................................................
          :                      SETUP                      :
          :.................................................:
          :  # basis functions                  65          :
          :  # atomic orbitals                  64          :
          :  # shells                           38          :
          :  # electrons                        60          :
          :  max. iterations                  5000          :
          :  Hamiltonian                  GFN2-xTB          :
          :  restarted?                      false          :
          :  GBSA solvation                  false          :
          :  PC potential                    false          :
          :  electronic temp.          300.0000000     K    :
          :  accuracy                    0.0100000          :
          :  -> integral cutoff          0.4500000E+02      :
          :  -> integral neglect         0.1000000E-09      :
          :  -> SCF convergence          0.1000000E-07 Eh   :
          :  -> wf. convergence          0.1000000E-05 e    :
          :  Broyden damping             0.4000000          :
          :  net charge                          0          :
          :  unpaired electrons                  0          :
          ...................................................

 iter      E             dE          RMSdq      gap      omega  full diag
   1    -32.0086166 -0.320086E+02  0.386E+00    3.92       0.0  T
   2    -32.0524162 -0.437997E-01  0.235E+00    3.49       1.0  T
   3    -32.0516976  0.718590E-03  0.865E-01    3.22       1.0  T
   4    -32.0531923 -0.149464E-02  0.305E-01    3.26       1.0  T
   5    -32.0547541 -0.156184E-02  0.121E-01    3.31       1.0  T
   6    -32.0549498 -0.195684E-03  0.446E-02    3.29       1.0  T
   7    -32.0549651 -0.152628E-04  0.157E-02    3.30       1.2  T
   8    -32.0549656 -0.570231E-06  0.701E-03    3.30       2.8  T
   9    -32.0549661 -0.470799E-06  0.151E-03    3.30      13.0  T
  10    -32.0549661 -0.276573E-07  0.566E-04    3.30      34.7  T
  11    -32.0549661 -0.908003E-10  0.294E-04    3.30      66.8  T
  12    -32.0549661 -0.773049E-09  0.473E-05    3.30     414.6  T
  13    -32.0549661 -0.253664E-11  0.174E-05    3.30    1130.3  T
  14    -32.0549661 -0.589750E-12  0.622E-06    3.30    3155.3  T
  15    -32.0549661 -0.284217E-13  0.236E-06    3.30    8307.4  T

   *** convergence criteria satisfied after 15 iterations ***

         #    Occupation            Energy/Eh            Energy/eV
      -------------------------------------------------------------
         1        2.0000           -0.6603374             -17.9687
       ...           ...                  ...                  ...
        24        2.0000           -0.4380286             -11.9194
        25        2.0000           -0.4256239             -11.5818
        26        2.0000           -0.4184097             -11.3855
        27        2.0000           -0.4073639             -11.0849
        28        2.0000           -0.4013542             -10.9214
        29        2.0000           -0.3998020             -10.8792
        30        2.0000           -0.3525572              -9.5936 (HOMO)
        31                         -0.2313041              -6.2941 (LUMO)
        32                         -0.2215720              -6.0293
        33                         -0.1486195              -4.0441
        34                         -0.1333807              -3.6295
        35                         -0.0912230              -2.4823
       ...                                ...                  ...
        64                          0.8056613              21.9232
      -------------------------------------------------------------
                  HL-Gap            0.1212531 Eh            3.2995 eV
             Fermi-level           -0.2919307 Eh           -7.9438 eV

 SCC (total)                   0 d,  0 h,  0 min,  0.087 sec
 SCC setup                      ...        0 min,  0.000 sec (  0.163%)
 Dispersion                     ...        0 min,  0.000 sec (  0.144%)
 classical contributions        ...        0 min,  0.000 sec (  0.011%)
 integral evaluation            ...        0 min,  0.002 sec (  2.138%)
 iterations                     ...        0 min,  0.083 sec ( 95.408%)
 molecular gradient             ...        0 min,  0.002 sec (  2.023%)
 printout                       ...        0 min,  0.000 sec (  0.090%)

         :::::::::::::::::::::::::::::::::::::::::::::::::::::
         ::                     SUMMARY                     ::
         :::::::::::::::::::::::::::::::::::::::::::::::::::::
         :: total energy             -31.539946868085 Eh    ::
         :: gradient norm              0.056044825172 Eh/a0 ::
         :: HOMO-LUMO gap              3.299464839049 eV    ::
         ::.................................................::
         :: SCC energy               -32.054814950293 Eh    ::
         :: -> isotropic ES            0.004380720865 Eh    ::
         :: -> anisotropic ES          0.006018416311 Eh    ::
         :: -> anisotropic XC          0.022425236177 Eh    ::
         :: -> dispersion             -0.023650089284 Eh    ::
         :: repulsion energy           0.514868082208 Eh    ::
         :: add. restraining           0.000000000000 Eh    ::
         :: total charge               0.000000000000 e     ::
         :::::::::::::::::::::::::::::::::::::::::::::::::::::

      ----------------------------------------------------------- 
     |                   =====================                   |
     |                        A N C O P T                        |
     |                   =====================                   |
     |               Approximate Normal Coordinate               |
     |                Rational Function Optimizer                |
      ----------------------------------------------------------- 
      ----------------------------------------------------------- 
     |                   =====================                   |
     |                        A N C O P T                        |
     |                   =====================                   |
     |               Approximate Normal Coordinate               |
     |                Rational Function Optimizer                |
      ----------------------------------------------------------- 

          ...................................................
          :                      SETUP                      :
          :.................................................:
          :   optimization level           extreme          :
          :   max. optcycles                  5000          :
          :   ANC micro-cycles                  20          :
          :   degrees of freedom                72          :
          :.................................................:
          :   RF solver                   davidson          :
          :   write xtbopt.log                true          :
          :   linear?                        false          :
          :   energy convergence         0.5000000E-07 Eh   :
          :   grad. convergence          0.5000000E-04 Eh/α :
          :   maxmium RF displ.          1.0000000          :
          :   Hlow (freq-cutoff)         0.1000000E-01      :
          :   Hmax (freq-cutoff)         5.0000000          :
          :   S6 in model hess.         20.0000000          :
          ...................................................

generating ANC from model Hessian ...
Using Lindh-Hessian (1995)
 Shifting diagonal of input Hessian by   1.391508528887166E-002
 Lowest  eigenvalues of input Hessian
    0.010000    0.000000    0.000000    0.000000    0.000000    0.000000
    0.000000    0.014307    0.015074    0.015331    0.015809    0.017023
    0.019103    0.022319    0.022972    0.023459    0.027531    0.027744
 Highest eigenvalues
    1.351460    1.539395    1.566698    1.868388    1.970475    1.990156
 

........................................................................
.............................. CYCLE    1 ..............................
........................................................................

 iter      E             dE          RMSdq      gap      omega  full diag
   1    -32.0549661 -0.320550E+02  0.108E-06    3.30       0.0  T
   2    -32.0549661  0.142109E-13  0.642E-07    3.30   30550.5  T
   3    -32.0549661 -0.142109E-13  0.398E-07    3.30   49284.6  T
     SCC iter.                  ...        0 min,  0.073 sec
     gradient                   ...        0 min,  0.002 sec
 * total energy  :   -31.5399469 Eh     change       -0.7815970E-13 Eh
   gradient norm :     0.0560448 Eh/α   predicted     0.0000000E+00 (-100.00%)
   displ. norm   :     0.4897823 α      lambda       -0.1575918E-01
   maximum displ.:     0.2417270 α      in ANC's #2, #1, #12, ...

........................................................................
.............................. CYCLE    2 ..............................
........................................................................

 iter      E             dE          RMSdq      gap      omega  full diag
   1    -32.0655470 -0.320655E+02  0.504E-01    3.58       0.0  T
   2    -32.0659080 -0.360996E-03  0.238E-01    3.62       1.0  T
   3    -32.0659382 -0.301538E-04  0.900E-02    3.66       1.0  T
   4    -32.0659390 -0.805123E-06  0.455E-02    3.65       1.0  T
   5    -32.0659561 -0.171595E-04  0.135E-02    3.65       1.5  T
   6    -32.0659594 -0.326888E-05  0.478E-03    3.65       4.1  T
   7    -32.0659594 -0.258432E-07  0.139E-03    3.65      14.1  T
   8    -32.0659594 -0.155749E-07  0.420E-04    3.65      46.7  T
   9    -32.0659594 -0.252702E-08  0.166E-04    3.65     118.3  T
  10    -32.0659594 -0.181856E-09  0.600E-05    3.65     327.1  T
  11    -32.0659594 -0.145164E-10  0.280E-05    3.65     700.5  T
  12    -32.0659594 -0.252953E-11  0.933E-06    3.65    2103.1  T
  13    -32.0659594 -0.348166E-12  0.451E-06    3.65    4348.8  T
     SCC iter.                  ...        0 min,  0.075 sec
     gradient                   ...        0 min,  0.002 sec
 * total energy  :   -31.5490896 Eh     change       -0.9142683E-02 Eh
   gradient norm :     0.0155228 Eh/α   predicted    -0.9769903E-02 (   6.86%)
   displ. norm   :     0.4344383 α      lambda       -0.3685399E-02
   maximum displ.:     0.2592991 α      in ANC's #2, #1, #6, ...

........................................................................
.............................. CYCLE    3 ..............................
........................................................................

 iter      E             dE          RMSdq      gap      omega  full diag
   1    -32.0698113 -0.320698E+02  0.152E-01    3.64       0.0  T
   2    -32.0698188 -0.747158E-05  0.898E-02    3.63       1.0  T
   3    -32.0698165  0.228022E-05  0.175E-02    3.63       1.1  T
   4    -32.0698198 -0.331159E-05  0.561E-03    3.63       3.5  T
   5    -32.0698203 -0.488211E-06  0.204E-03    3.63       9.6  T
   6    -32.0698203 -0.467764E-07  0.959E-04    3.63      20.4  T
   7    -32.0698204 -0.391259E-08  0.381E-04    3.63      51.5  T
   8    -32.0698204 -0.906510E-09  0.174E-04    3.63     112.6  T
   9    -32.0698204 -0.161478E-09  0.574E-05    3.63     341.4  T
  10    -32.0698204 -0.288054E-10  0.249E-05    3.63     786.7  T
  11    -32.0698204 -0.239453E-11  0.845E-06    3.63    2321.7  T
  12    -32.0698204 -0.270006E-12  0.337E-06    3.63    5815.9  T
     SCC iter.                  ...        0 min,  0.075 sec
     gradient                   ...        0 min,  0.002 sec
 * total energy  :   -31.5518470 Eh     change       -0.2757452E-02 Eh
   gradient norm :     0.0087164 Eh/α   predicted    -0.2190485E-02 ( -20.56%)
   displ. norm   :     0.4702768 α      lambda       -0.2403849E-02
   maximum displ.:     0.2513202 α      in ANC's #2, #1, #6, ...

........................................................................
.............................. CYCLE    4 ..............................
........................................................................

 iter      E             dE          RMSdq      gap      omega  full diag
   1    -32.0703517 -0.320704E+02  0.150E-01    3.65       0.0  T
   2    -32.0703578 -0.605935E-05  0.880E-02    3.65       1.0  T
   3    -32.0703549  0.284749E-05  0.161E-02    3.65       1.2  T
   4    -32.0703580 -0.311601E-05  0.776E-03    3.65       2.5  T
   5    -32.0703591 -0.101714E-05  0.201E-03    3.65       9.8  T
   6    -32.0703591 -0.676731E-07  0.903E-04    3.65      21.7  T
   7    -32.0703591 -0.277904E-08  0.376E-04    3.65      52.2  T
   8    -32.0703591 -0.327375E-09  0.155E-04    3.65     126.7  T
   9    -32.0703591 -0.196003E-09  0.518E-05    3.65     378.3  T
  10    -32.0703591 -0.127045E-10  0.247E-05    3.65     793.8  T
  11    -32.0703591 -0.181899E-11  0.844E-06    3.65    2324.3  T
  12    -32.0703591 -0.305533E-12  0.257E-06    3.65    7626.9  T
     SCC iter.                  ...        0 min,  0.075 sec
     gradient                   ...        0 min,  0.002 sec
 * total energy  :   -31.5535321 Eh     change       -0.1685107E-02 Eh
   gradient norm :     0.0069841 Eh/α   predicted    -0.1467745E-02 ( -12.90%)
   displ. norm   :     0.3850365 α      lambda       -0.1053511E-02
   maximum displ.:     0.1887140 α      in ANC's #2, #1, #5, ...

........................................................................
.............................. CYCLE    5 ..............................
........................................................................

 iter      E             dE          RMSdq      gap      omega  full diag
   1    -32.0718297 -0.320718E+02  0.101E-01    3.64       0.0  T
   2    -32.0718320 -0.230664E-05  0.599E-02    3.64       1.0  T
   3    -32.0718291  0.284737E-05  0.113E-02    3.63       1.7  T
   4    -32.0718323 -0.322194E-05  0.451E-03    3.63       4.4  T
   5    -32.0718327 -0.307037E-06  0.142E-03    3.63      13.8  T
   6    -32.0718327 -0.220814E-08  0.528E-04    3.63      37.2  T
   7    -32.0718327 -0.238788E-08  0.199E-04    3.63      98.3  T
   8    -32.0718327 -0.186105E-09  0.840E-05    3.63     233.6  T
   9    -32.0718327 -0.619309E-10  0.276E-05    3.63     710.8  T
  10    -32.0718327 -0.252243E-11  0.116E-05    3.63    1688.7  T
  11    -32.0718327 -0.980549E-12  0.432E-06    3.63    4538.7  T
  12    -32.0718327 -0.710543E-13  0.116E-06    3.63   16856.0  T
     SCC iter.                  ...        0 min,  0.075 sec
     gradient                   ...        0 min,  0.002 sec
 * total energy  :   -31.5542809 Eh     change       -0.7488193E-03 Eh
   gradient norm :     0.0059713 Eh/α   predicted    -0.6048535E-03 ( -19.23%)
   displ. norm   :     0.3239138 α      lambda       -0.5601099E-03
   maximum displ.:     0.1707700 α      in ANC's #5, #2, #1, ...

........................................................................
.............................. CYCLE    6 ..............................
........................................................................

 iter      E             dE          RMSdq      gap      omega  full diag
   1    -32.0736630 -0.320737E+02  0.923E-02    3.64       0.0  T
   2    -32.0736641 -0.108108E-05  0.543E-02    3.64       1.0  T
   3    -32.0736631  0.978662E-06  0.729E-03    3.64       2.7  T
   4    -32.0736643 -0.116450E-05  0.306E-03    3.64       6.4  T
   5    -32.0736644 -0.125281E-06  0.125E-03    3.64      15.7  T
   6    -32.0736644 -0.280460E-08  0.490E-04    3.64      40.0  T
   7    -32.0736644 -0.456168E-10  0.145E-04    3.64     135.5  T
   8    -32.0736644 -0.175731E-09  0.542E-05    3.64     361.9  T
   9    -32.0736644 -0.222755E-10  0.230E-05    3.64     852.0  T
  10    -32.0736644 -0.312639E-11  0.974E-06    3.64    2013.5  T
  11    -32.0736644 -0.547118E-12  0.312E-06    3.64    6283.3  T
     SCC iter.                  ...        0 min,  0.074 sec
     gradient                   ...        0 min,  0.002 sec
 * total energy  :   -31.5546842 Eh     change       -0.4032498E-03 Eh
   gradient norm :     0.0039333 Eh/α   predicted    -0.3094406E-03 ( -23.26%)
   displ. norm   :     0.2934598 α      lambda       -0.3565463E-03
   maximum displ.:     0.1882274 α      in ANC's #5, #1, #7, ...

........................................................................
.............................. CYCLE    7 ..............................
........................................................................

 iter      E             dE          RMSdq      gap      omega  full diag
   1    -32.0753100 -0.320753E+02  0.989E-02    3.65       0.0  T
   2    -32.0753110 -0.979710E-06  0.581E-02    3.65       1.0  T
   3    -32.0753106  0.435381E-06  0.637E-03    3.64       3.1  T
   4    -32.0753112 -0.594041E-06  0.268E-03    3.64       7.3  T
   5    -32.0753112 -0.779080E-07  0.116E-03    3.64      16.9  T
   6    -32.0753112 -0.491402E-08  0.462E-04    3.64      42.4  T
   7    -32.0753112 -0.495270E-09  0.139E-04    3.64     141.3  T
   8    -32.0753112 -0.192031E-09  0.375E-05    3.64     522.9  T
   9    -32.0753112 -0.895284E-11  0.202E-05    3.64     968.9  T
  10    -32.0753112 -0.205347E-11  0.811E-06    3.64    2417.5  T
  11    -32.0753112 -0.220268E-12  0.277E-06    3.64    7069.7  T
     SCC iter.                  ...        0 min,  0.074 sec
     gradient                   ...        0 min,  0.002 sec
 * total energy  :   -31.5549468 Eh     change       -0.2626322E-03 Eh
   gradient norm :     0.0038150 Eh/α   predicted    -0.1936285E-03 ( -26.27%)
   displ. norm   :     0.3040480 α      lambda       -0.2955122E-03
   maximum displ.:     0.2114165 α      in ANC's #5, #3, #7, ...

........................................................................
.............................. CYCLE    8 ..............................
........................................................................

 iter      E             dE          RMSdq      gap      omega  full diag
   1    -32.0762092 -0.320762E+02  0.114E-01    3.66       0.0  T
   2    -32.0762102 -0.103926E-05  0.671E-02    3.66       1.0  T
   3    -32.0762101  0.856114E-07  0.589E-03    3.66       3.3  T
   4    -32.0762104 -0.276530E-06  0.230E-03    3.66       8.5  T
   5    -32.0762104 -0.244635E-07  0.954E-04    3.66      20.5  T
   6    -32.0762104 -0.719695E-08  0.479E-04    3.66      40.9  T
   7    -32.0762104 -0.101037E-08  0.127E-04    3.66     154.3  T
   8    -32.0762104 -0.168228E-09  0.360E-05    3.66     544.5  T
   9    -32.0762104 -0.689937E-11  0.205E-05    3.66     955.9  T
  10    -32.0762104 -0.229505E-11  0.598E-06    3.66    3277.5  T
  11    -32.0762104 -0.170530E-12  0.221E-06    3.66    8875.3  T
     SCC iter.                  ...        0 min,  0.074 sec
     gradient                   ...        0 min,  0.002 sec
 * total energy  :   -31.5551700 Eh     change       -0.2232205E-03 Eh
   gradient norm :     0.0051546 Eh/α   predicted    -0.1614160E-03 ( -27.69%)
   displ. norm   :     0.3089233 α      lambda       -0.2691242E-03
   maximum displ.:     0.2129484 α      in ANC's #5, #3, #7, ...

........................................................................
.............................. CYCLE    9 ..............................
........................................................................

 iter      E             dE          RMSdq      gap      omega  full diag
   1    -32.0763811 -0.320764E+02  0.122E-01    3.67       0.0  T
   2    -32.0763822 -0.107405E-05  0.719E-02    3.67       1.0  T
   3    -32.0763823 -0.929140E-07  0.507E-03    3.67       3.9  T
   4    -32.0763824 -0.109494E-06  0.201E-03    3.67       9.7  T
   5    -32.0763824 -0.139381E-07  0.809E-04    3.67      24.2  T
   6    -32.0763824 -0.548077E-09  0.373E-04    3.67      52.6  T
   7    -32.0763824 -0.268641E-08  0.966E-05    3.67     203.0  T
   8    -32.0763824 -0.263469E-10  0.366E-05    3.67     535.5  T
   9    -32.0763824 -0.373035E-11  0.137E-05    3.67    1428.1  T
  10    -32.0763824 -0.937916E-12  0.418E-06    3.67    4692.6  T
  11    -32.0763824 -0.923706E-13  0.176E-06    3.67   11131.4  T
     SCC iter.                  ...        0 min,  0.074 sec
     gradient                   ...        0 min,  0.002 sec
 * total energy  :   -31.5553672 Eh     change       -0.1972172E-03 Eh
   gradient norm :     0.0051288 Eh/α   predicted    -0.1474080E-03 ( -25.26%)
   displ. norm   :     0.2448766 α      lambda       -0.1708825E-03
   maximum displ.:     0.1606951 α      in ANC's #5, #3, #1, ...

........................................................................
.............................. CYCLE   10 ..............................
........................................................................

 iter      E             dE          RMSdq      gap      omega  full diag
   1    -32.0760637 -0.320761E+02  0.966E-02    3.68       0.0  T
   2    -32.0760645 -0.740763E-06  0.564E-02    3.68       1.0  T
   3    -32.0760644  0.377797E-07  0.422E-03    3.68       4.6  T
   4    -32.0760645 -0.902266E-07  0.216E-03    3.68       9.1  T
   5    -32.0760646 -0.996431E-07  0.802E-04    3.68      24.4  T
   6    -32.0760646 -0.507022E-08  0.326E-04    3.68      60.2  T
   7    -32.0760646 -0.223046E-09  0.691E-05    3.68     283.8  T
   8    -32.0760646 -0.233413E-10  0.322E-05    3.68     609.3  T
   9    -32.0760646 -0.116671E-10  0.105E-05    3.68    1870.7  T
  10    -32.0760646 -0.136424E-11  0.410E-06    3.68    4779.5  T
  11    -32.0760646 -0.923706E-13  0.167E-06    3.68   11773.6  T
     SCC iter.                  ...        0 min,  0.074 sec
     gradient                   ...        0 min,  0.002 sec
 * total energy  :   -31.5554805 Eh     change       -0.1132457E-03 Eh
   gradient norm :     0.0032295 Eh/α   predicted    -0.9056926E-04 ( -20.02%)
   displ. norm   :     0.1192043 α      lambda       -0.5546919E-04
   maximum displ.:     0.0737114 α      in ANC's #5, #1, #3, ...

........................................................................
.............................. CYCLE   11 ..............................
........................................................................

 iter      E             dE          RMSdq      gap      omega  full diag
   1    -32.0760909 -0.320761E+02  0.442E-02    3.68       0.0  T
   2    -32.0760911 -0.179590E-06  0.257E-02    3.68       1.0  T
   3    -32.0760910  0.660760E-07  0.252E-03    3.68       7.8  T
   4    -32.0760911 -0.911033E-07  0.996E-04    3.68      19.7  T
   5    -32.0760911 -0.189142E-07  0.431E-04    3.68      45.5  T
   6    -32.0760912 -0.145057E-08  0.170E-04    3.68     115.5  T
   7    -32.0760912  0.207123E-10  0.443E-05    3.68     443.0  T
   8    -32.0760912 -0.331681E-10  0.162E-05    3.68    1213.5  T
   9    -32.0760912 -0.179057E-11  0.584E-06    3.68    3359.5  T
  10    -32.0760912 -0.341061E-12  0.225E-06    3.68    8734.5  T
     SCC iter.                  ...        0 min,  0.074 sec
     gradient                   ...        0 min,  0.002 sec
 * total energy  :   -31.5555180 Eh     change       -0.3753230E-04 Eh
   gradient norm :     0.0015877 Eh/α   predicted    -0.2813099E-04 ( -25.05%)
   displ. norm   :     0.1123142 α      lambda       -0.2590251E-04
   maximum displ.:     0.0654817 α      in ANC's #5, #1, #6, ...

........................................................................
.............................. CYCLE   12 ..............................
........................................................................

 iter      E             dE          RMSdq      gap      omega  full diag
   1    -32.0762000 -0.320762E+02  0.381E-02    3.69       0.0  T
   2    -32.0762001 -0.121315E-06  0.223E-02    3.69       1.0  T
   3    -32.0762000  0.632977E-07  0.220E-03    3.69       8.9  T
   4    -32.0762001 -0.875811E-07  0.770E-04    3.69      25.5  T
   5    -32.0762001 -0.993270E-08  0.358E-04    3.69      54.8  T
   6    -32.0762001 -0.102554E-08  0.118E-04    3.69     166.6  T
   7    -32.0762001  0.153122E-10  0.388E-05    3.69     505.9  T
   8    -32.0762001 -0.287983E-10  0.116E-05    3.69    1683.6  T
   9    -32.0762001 -0.646594E-12  0.575E-06    3.69    3410.7  T
  10    -32.0762001 -0.177636E-12  0.169E-06    3.69   11595.7  T
     SCC iter.                  ...        0 min,  0.073 sec
     gradient                   ...        0 min,  0.002 sec
 * total energy  :   -31.5555419 Eh     change       -0.2383161E-04 Eh
   gradient norm :     0.0016524 Eh/α   predicted    -0.1302415E-04 ( -45.35%)
   displ. norm   :     0.0760533 α      lambda       -0.1510808E-04
   maximum displ.:     0.0402904 α      in ANC's #1, #5, #4, ...

........................................................................
.............................. CYCLE   13 ..............................
........................................................................

 iter      E             dE          RMSdq      gap      omega  full diag
   1    -32.0763124 -0.320763E+02  0.238E-02    3.69       0.0  T
   2    -32.0763125 -0.468592E-07  0.140E-02    3.69       1.4  T
   3    -32.0763125 -0.674596E-09  0.963E-04    3.69      20.4  T
   4    -32.0763125 -0.690763E-08  0.502E-04    3.69      39.1  T
   5    -32.0763125 -0.416707E-08  0.168E-04    3.69     116.9  T
   6    -32.0763125 -0.646736E-10  0.918E-05    3.69     213.7  T
   7    -32.0763125 -0.642260E-10  0.239E-05    3.69     820.1  T
   8    -32.0763125 -0.288480E-11  0.817E-06    3.69    2400.4  T
   9    -32.0763125 -0.504485E-12  0.409E-06    3.69    4799.0  T
     SCC iter.                  ...        0 min,  0.074 sec
     gradient                   ...        0 min,  0.002 sec
 * total energy  :   -31.5555599 Eh     change       -0.1806020E-04 Eh
   gradient norm :     0.0014913 Eh/α   predicted    -0.7575649E-05 ( -58.05%)
   displ. norm   :     0.1572338 α      lambda       -0.2751163E-04
   maximum displ.:     0.0797048 α      in ANC's #4, #5, #1, ...

........................................................................
.............................. CYCLE   14 ..............................
........................................................................

 iter      E             dE          RMSdq      gap      omega  full diag
   1    -32.0764956 -0.320765E+02  0.490E-02    3.69       0.0  T
   2    -32.0764958 -0.151838E-06  0.287E-02    3.69       1.0  T
   3    -32.0764957  0.242566E-07  0.223E-03    3.69       8.8  T
   4    -32.0764958 -0.477345E-07  0.117E-03    3.69      16.8  T
   5    -32.0764958 -0.219440E-07  0.340E-04    3.69      57.7  T
   6    -32.0764958 -0.347868E-09  0.194E-04    3.69     101.0  T
   7    -32.0764958 -0.129376E-09  0.384E-05    3.69     511.3  T
   8    -32.0764958 -0.164277E-10  0.138E-05    3.69    1416.6  T
   9    -32.0764958 -0.859757E-12  0.575E-06    3.69    3408.3  T
  10    -32.0764958 -0.312639E-12  0.261E-06    3.69    7511.9  T
     SCC iter.                  ...        0 min,  0.074 sec
     gradient                   ...        0 min,  0.002 sec
 * total energy  :   -31.5555874 Eh     change       -0.2746462E-04 Eh
   gradient norm :     0.0015967 Eh/α   predicted    -0.1390805E-04 ( -49.36%)
   displ. norm   :     0.1599655 α      lambda       -0.2204098E-04
   maximum displ.:     0.0857572 α      in ANC's #4, #5, #6, ...

........................................................................
.............................. CYCLE   15 ..............................
........................................................................

 iter      E             dE          RMSdq      gap      omega  full diag
   1    -32.0760823 -0.320761E+02  0.506E-02    3.69       0.0  T
   2    -32.0760824 -0.180122E-06  0.299E-02    3.68       1.0  T
   3    -32.0760824  0.667711E-08  0.296E-03    3.68       6.6  T
   4    -32.0760825 -0.555997E-07  0.984E-04    3.68      19.9  T
   5    -32.0760825 -0.922775E-09  0.532E-04    3.68      36.8  T
   6    -32.0760825 -0.297430E-08  0.255E-04    3.68      76.9  T
   7    -32.0760825 -0.162807E-09  0.426E-05    3.68     460.6  T
   8    -32.0760825 -0.622435E-11  0.195E-05    3.68    1003.9  T
   9    -32.0760825 -0.841283E-11  0.585E-06    3.68    3354.2  T
  10    -32.0760825 -0.852651E-13  0.283E-06    3.68    6925.7  T
     SCC iter.                  ...        0 min,  0.074 sec
     gradient                   ...        0 min,  0.002 sec
 * total energy  :   -31.5556088 Eh     change       -0.2142206E-04 Eh
   gradient norm :     0.0023021 Eh/α   predicted    -0.1114951E-04 ( -47.95%)
   displ. norm   :     0.1034665 α      lambda       -0.2316255E-04
   maximum displ.:     0.0608981 α      in ANC's #4, #6, #5, ...

........................................................................
.............................. CYCLE   16 ..............................
........................................................................

 iter      E             dE          RMSdq      gap      omega  full diag
   1    -32.0761649 -0.320762E+02  0.325E-02    3.68       0.0  T
   2    -32.0761650 -0.442795E-07  0.192E-02    3.68       1.0  T
   3    -32.0761650  0.134877E-08  0.161E-03    3.68      12.2  T
   4    -32.0761650 -0.173590E-07  0.574E-04    3.68      34.1  T
   5    -32.0761650  0.357957E-09  0.325E-04    3.68      60.3  T
   6    -32.0761650 -0.108005E-08  0.136E-04    3.68     143.7  T
   7    -32.0761650 -0.353282E-10  0.182E-05    3.68    1076.2  T
   8    -32.0761650 -0.606093E-11  0.929E-06    3.68    2111.1  T
   9    -32.0761650 -0.795808E-12  0.401E-06    3.68    4891.7  T
     SCC iter.                  ...        0 min,  0.074 sec
     gradient                   ...        0 min,  0.002 sec
 * total energy  :   -31.5556272 Eh     change       -0.1836779E-04 Eh
   gradient norm :     0.0019834 Eh/α   predicted    -0.1170827E-04 ( -36.26%)
   displ. norm   :     0.2509284 α      lambda       -0.3465790E-04
   maximum displ.:     0.1549051 α      in ANC's #4, #6, #5, ...

........................................................................
.............................. CYCLE   17 ..............................
........................................................................

 iter      E             dE          RMSdq      gap      omega  full diag
   1    -32.0758289 -0.320758E+02  0.785E-02    3.69       0.0  T
   2    -32.0758293 -0.377347E-06  0.462E-02    3.69       1.0  T
   3    -32.0758293  0.150969E-09  0.455E-03    3.68       4.3  T
   4    -32.0758294 -0.108474E-06  0.159E-03    3.68      12.3  T
   5    -32.0758294  0.308944E-08  0.943E-04    3.68      20.8  T
   6    -32.0758294 -0.706828E-08  0.363E-04    3.68      54.0  T
   7    -32.0758294 -0.292594E-09  0.565E-05    3.68     347.4  T
   8    -32.0758294 -0.297220E-10  0.233E-05    3.68     843.4  T
   9    -32.0758294 -0.810019E-12  0.103E-05    3.68    1902.4  T
  10    -32.0758294 -0.125056E-11  0.399E-06    3.68    4918.2  T
  11    -32.0758294 -0.113687E-12  0.105E-06    3.68   18760.7  T
     SCC iter.                  ...        0 min,  0.075 sec
     gradient                   ...        0 min,  0.002 sec
 * total energy  :   -31.5556511 Eh     change       -0.2397498E-04 Eh
   gradient norm :     0.0022944 Eh/α   predicted    -0.1781499E-04 ( -25.69%)
   displ. norm   :     0.0404434 α      lambda       -0.1775174E-04
   maximum displ.:     0.0213127 α      in ANC's #2, #1, #5, ...

........................................................................
.............................. CYCLE   18 ..............................
........................................................................

 iter      E             dE          RMSdq      gap      omega  full diag
   1    -32.0768509 -0.320769E+02  0.126E-02    3.69       0.0  T
   2    -32.0768511 -0.206128E-06  0.714E-03    3.68       2.7  T
   3    -32.0768511 -0.591958E-08  0.220E-03    3.68       8.9  T
   4    -32.0768511 -0.768500E-08  0.688E-04    3.68      28.5  T
   5    -32.0768511 -0.598760E-09  0.457E-04    3.68      42.9  T
   6    -32.0768512 -0.186301E-08  0.111E-04    3.68     176.4  T
   7    -32.0768512 -0.692850E-10  0.418E-05    3.68     469.1  T
   8    -32.0768512 -0.129674E-10  0.132E-05    3.68    1487.7  T
   9    -32.0768512 -0.675016E-12  0.486E-06    3.68    4034.2  T
  10    -32.0768512 -0.149214E-12  0.209E-06    3.68    9367.5  T
     SCC iter.                  ...        0 min,  0.074 sec
     gradient                   ...        0 min,  0.002 sec
 * total energy  :   -31.5556586 Eh     change       -0.7404790E-05 Eh
   gradient norm :     0.0015296 Eh/α   predicted    -0.8896541E-05 (  20.15%)
   displ. norm   :     0.0665845 α      lambda       -0.1034993E-04
   maximum displ.:     0.0441684 α      in ANC's #4, #5, #2, ...

........................................................................
.............................. CYCLE   19 ..............................
........................................................................

 iter      E             dE          RMSdq      gap      omega  full diag
   1    -32.0762313 -0.320762E+02  0.247E-02    3.68       0.0  T
   2    -32.0762313 -0.752551E-07  0.144E-02    3.68       1.4  T
   3    -32.0762313  0.815669E-08  0.185E-03    3.68      10.6  T
   4    -32.0762314 -0.199057E-07  0.550E-04    3.68      35.6  T
   5    -32.0762314 -0.146873E-08  0.329E-04    3.68      59.6  T
   6    -32.0762314 -0.102081E-08  0.133E-04    3.68     148.0  T
   7    -32.0762314 -0.356977E-10  0.309E-05    3.68     635.5  T
   8    -32.0762314 -0.507328E-11  0.110E-05    3.68    1784.2  T
   9    -32.0762314 -0.164846E-11  0.414E-06    3.68    4742.5  T
  10    -32.0762314 -0.106581E-12  0.205E-06    3.68    9543.8  T
     SCC iter.                  ...        0 min,  0.074 sec
     gradient                   ...        0 min,  0.002 sec
 * total energy  :   -31.5556703 Eh     change       -0.1171044E-04 Eh
   gradient norm :     0.0009720 Eh/α   predicted    -0.5188097E-05 ( -55.70%)
   displ. norm   :     0.0872029 α      lambda       -0.1407599E-04
   maximum displ.:     0.0602369 α      in ANC's #4, #2, #5, ...

........................................................................
.............................. CYCLE   20 ..............................
........................................................................

 iter      E             dE          RMSdq      gap      omega  full diag
   1    -32.0767387 -0.320767E+02  0.317E-02    3.69       0.0  T
   2    -32.0767388 -0.901844E-07  0.186E-02    3.68       1.1  T
   3    -32.0767388  0.896522E-08  0.154E-03    3.68      12.7  T
   4    -32.0767388 -0.241707E-07  0.671E-04    3.68      29.2  T
   5    -32.0767388 -0.534638E-08  0.249E-04    3.68      78.8  T
   6    -32.0767388 -0.441048E-09  0.122E-04    3.68     161.2  T
   7    -32.0767388 -0.451195E-10  0.393E-05    3.68     499.2  T
   8    -32.0767388 -0.157669E-10  0.118E-05    3.68    1665.0  T
   9    -32.0767388 -0.112976E-11  0.433E-06    3.68    4524.4  T
  10    -32.0767388 -0.284217E-13  0.172E-06    3.68   11401.9  T
     SCC iter.                  ...        0 min,  0.074 sec
     gradient                   ...        0 min,  0.002 sec
 * total energy  :   -31.5556845 Eh     change       -0.1419156E-04 Eh
   gradient norm :     0.0015552 Eh/α   predicted    -0.7065366E-05 ( -50.21%)
   displ. norm   :     0.0867975 α      lambda        0.1585489E-05
   maximum displ.:     0.0599470 α      in ANC's #4, #2, #5, ...
 * RMSD in coord.:     0.6166898 α      energy gain  -0.1573759E-01 Eh

generating ANC from model Hessian ...
Using Lindh-Hessian (1995)
 Shifting diagonal of input Hessian by   9.192544591823096E-003
 Lowest  eigenvalues of input Hessian
    0.000000    0.000000    0.000000    0.000000    0.000000    0.000000
    0.010000    0.010200    0.010783    0.011008    0.011608    0.012836
    0.015189    0.016771    0.018502    0.018841    0.022423    0.024273
 Highest eigenvalues
    1.365341    1.553027    1.577720    1.885024    1.990978    2.007045
 

........................................................................
.............................. CYCLE   21 ..............................
........................................................................

 iter      E             dE          RMSdq      gap      omega  full diag
   1    -32.0771413 -0.320771E+02  0.316E-02    3.69       0.0  T
   2    -32.0771414 -0.894334E-07  0.186E-02    3.68       1.1  T
   3    -32.0771414  0.947703E-08  0.154E-03    3.68      12.7  T
   4    -32.0771414 -0.247552E-07  0.665E-04    3.68      29.5  T
   5    -32.0771414 -0.517993E-08  0.246E-04    3.68      79.8  T
   6    -32.0771414 -0.416605E-09  0.120E-04    3.68     163.3  T
   7    -32.0771414 -0.426823E-10  0.390E-05    3.68     502.3  T
   8    -32.0771414 -0.153761E-10  0.118E-05    3.68    1662.2  T
   9    -32.0771414 -0.109424E-11  0.434E-06    3.68    4519.3  T
  10    -32.0771414 -0.184741E-12  0.171E-06    3.68   11489.9  T
     SCC iter.                  ...        0 min,  0.074 sec
     gradient                   ...        0 min,  0.002 sec
 * total energy  :   -31.5556849 Eh     change       -0.4925782E-06 Eh
   gradient norm :     0.0031817 Eh/α   predicted     0.0000000E+00 (-100.00%)
   displ. norm   :     0.0243120 α      lambda       -0.2515312E-04
   maximum displ.:     0.0156921 α      in ANC's #1, #11, #12, ...

........................................................................
.............................. CYCLE   22 ..............................
........................................................................

 iter      E             dE          RMSdq      gap      omega  full diag
   1    -32.0766205 -0.320766E+02  0.157E-02    3.68       0.0  T
   2    -32.0766205 -0.618689E-07  0.927E-03    3.68       2.1  T
   3    -32.0766205  0.265032E-07  0.183E-03    3.68      10.7  T
   4    -32.0766205 -0.384403E-07  0.521E-04    3.68      37.6  T
   5    -32.0766205 -0.653564E-09  0.241E-04    3.68      81.4  T
   6    -32.0766205 -0.104467E-08  0.112E-04    3.68     175.4  T
   7    -32.0766205 -0.419504E-10  0.468E-05    3.68     418.7  T
   8    -32.0766205 -0.100187E-11  0.115E-05    3.68    1703.8  T
   9    -32.0766205 -0.238032E-11  0.405E-06    3.68    4846.2  T
  10    -32.0766205 -0.127898E-12  0.150E-06    3.68   13085.9  T
     SCC iter.                  ...        0 min,  0.074 sec
     gradient                   ...        0 min,  0.002 sec
 * total energy  :   -31.5557023 Eh     change       -0.1731463E-04 Eh
   gradient norm :     0.0010440 Eh/α   predicted    -0.1267716E-04 ( -26.78%)
   displ. norm   :     0.0490606 α      lambda       -0.1134900E-04
   maximum displ.:     0.0392879 α      in ANC's #1, #11, #9, ...

........................................................................
.............................. CYCLE   23 ..............................
........................................................................

 iter      E             dE          RMSdq      gap      omega  full diag
   1    -32.0762764 -0.320763E+02  0.223E-02    3.68       0.0  T
   2    -32.0762765 -0.563423E-07  0.131E-02    3.68       1.5  T
   3    -32.0762764  0.316848E-07  0.185E-03    3.68      10.6  T
   4    -32.0762765 -0.451262E-07  0.548E-04    3.68      35.8  T
   5    -32.0762765 -0.169365E-08  0.248E-04    3.68      79.0  T
   6    -32.0762765 -0.111972E-08  0.106E-04    3.68     185.8  T
   7    -32.0762765 -0.183888E-10  0.286E-05    3.68     686.3  T
   8    -32.0762765 -0.834888E-11  0.909E-06    3.68    2158.2  T
   9    -32.0762765 -0.184741E-12  0.488E-06    3.68    4018.5  T
     SCC iter.                  ...        0 min,  0.074 sec
     gradient                   ...        0 min,  0.002 sec
 * total energy  :   -31.5557110 Eh     change       -0.8714974E-05 Eh
   gradient norm :     0.0012881 Eh/α   predicted    -0.5686361E-05 ( -34.75%)
   displ. norm   :     0.0298440 α      lambda       -0.4272739E-05
   maximum displ.:     0.0262627 α      in ANC's #1, #9, #10, ...

........................................................................
.............................. CYCLE   24 ..............................
........................................................................

 iter      E             dE          RMSdq      gap      omega  full diag
   1    -32.0764220 -0.320764E+02  0.117E-02    3.68       0.0  T
   2    -32.0764220 -0.225218E-07  0.674E-03    3.68       2.9  T
   3    -32.0764220  0.332989E-09  0.793E-04    3.68      24.7  T
   4    -32.0764220 -0.276727E-08  0.288E-04    3.68      68.1  T
   5    -32.0764220 -0.837481E-09  0.942E-05    3.68     208.1  T
   6    -32.0764220 -0.127500E-09  0.394E-05    3.68     497.8  T
   7    -32.0764220 -0.101963E-10  0.182E-05    3.68    1078.6  T
   8    -32.0764220 -0.158451E-11  0.498E-06    3.68    3936.8  T
   9    -32.0764220 -0.206057E-12  0.195E-06    3.68   10066.1  T
     SCC iter.                  ...        0 min,  0.073 sec
     gradient                   ...        0 min,  0.002 sec
 * total energy  :   -31.5557170 Eh     change       -0.6021087E-05 Eh
   gradient norm :     0.0009117 Eh/α   predicted    -0.2248940E-05 ( -62.65%)
   displ. norm   :     0.0483129 α      lambda       -0.7425979E-05
   maximum displ.:     0.0407272 α      in ANC's #1, #9, #6, ...

........................................................................
.............................. CYCLE   25 ..............................
........................................................................

 iter      E             dE          RMSdq      gap      omega  full diag
   1    -32.0767288 -0.320767E+02  0.176E-02    3.68       0.0  T
   2    -32.0767288 -0.710803E-07  0.102E-02    3.68       1.9  T
   3    -32.0767288  0.221606E-08  0.140E-03    3.68      14.0  T
   4    -32.0767288 -0.947315E-08  0.576E-04    3.68      34.1  T
   5    -32.0767288 -0.288499E-08  0.196E-04    3.68      99.9  T
   6    -32.0767288 -0.410445E-09  0.752E-05    3.68     260.7  T
   7    -32.0767288 -0.201297E-10  0.308E-05    3.68     636.5  T
   8    -32.0767288 -0.365930E-11  0.913E-06    3.68    2147.7  T
   9    -32.0767288 -0.831335E-12  0.277E-06    3.68    7092.2  T
     SCC iter.                  ...        0 min,  0.073 sec
     gradient                   ...        0 min,  0.002 sec
 * total energy  :   -31.5557257 Eh     change       -0.8667842E-05 Eh
   gradient norm :     0.0006055 Eh/α   predicted    -0.3717389E-05 ( -57.11%)
   displ. norm   :     0.0563261 α      lambda       -0.6096166E-05
   maximum displ.:     0.0479917 α      in ANC's #1, #9, #10, ...

........................................................................
.............................. CYCLE   26 ..............................
........................................................................

 iter      E             dE          RMSdq      gap      omega  full diag
   1    -32.0766841 -0.320767E+02  0.197E-02    3.68       0.0  T
   2    -32.0766842 -0.494260E-07  0.114E-02    3.68       1.7  T
   3    -32.0766842  0.122437E-08  0.124E-03    3.68      15.8  T
   4    -32.0766842 -0.669325E-08  0.534E-04    3.68      36.7  T
   5    -32.0766842 -0.299393E-08  0.185E-04    3.68     105.9  T
   6    -32.0766842 -0.360764E-09  0.812E-05    3.68     241.4  T
   7    -32.0766842 -0.534328E-11  0.228E-05    3.68     860.5  T
   8    -32.0766842 -0.323297E-11  0.945E-06    3.68    2075.3  T
   9    -32.0766842 -0.150635E-11  0.286E-06    3.68    6867.1  T
     SCC iter.                  ...        0 min,  0.074 sec
     gradient                   ...        0 min,  0.002 sec
 * total energy  :   -31.5557336 Eh     change       -0.7968561E-05 Eh
   gradient norm :     0.0007799 Eh/α   predicted    -0.3053254E-05 ( -61.68%)
   displ. norm   :     0.0489920 α      lambda       -0.4949818E-05
   maximum displ.:     0.0424826 α      in ANC's #1, #9, #3, ...

........................................................................
.............................. CYCLE   27 ..............................
........................................................................

 iter      E             dE          RMSdq      gap      omega  full diag
   1    -32.0766425 -0.320766E+02  0.165E-02    3.68       0.0  T
   2    -32.0766425 -0.180082E-07  0.970E-03    3.68       2.0  T
   3    -32.0766425  0.880047E-08  0.107E-03    3.68      18.4  T
   4    -32.0766425 -0.132606E-07  0.348E-04    3.68      56.3  T
   5    -32.0766425 -0.101265E-08  0.154E-04    3.68     127.5  T
   6    -32.0766425 -0.196053E-09  0.729E-05    3.68     268.9  T
   7    -32.0766425 -0.705569E-11  0.159E-05    3.68    1232.2  T
   8    -32.0766425 -0.529354E-11  0.647E-06    3.68    3031.0  T
   9    -32.0766425 -0.383693E-12  0.274E-06    3.68    7152.2  T
     SCC iter.                  ...        0 min,  0.074 sec
     gradient                   ...        0 min,  0.002 sec
 * total energy  :   -31.5557407 Eh     change       -0.7028298E-05 Eh
   gradient norm :     0.0006183 Eh/α   predicted    -0.2477939E-05 ( -64.74%)
   displ. norm   :     0.0438668 α      lambda       -0.4715227E-05
   maximum displ.:     0.0389562 α      in ANC's #1, #3, #4, ...

........................................................................
.............................. CYCLE   28 ..............................
........................................................................

 iter      E             dE          RMSdq      gap      omega  full diag
   1    -32.0765917 -0.320766E+02  0.147E-02    3.68       0.0  T
   2    -32.0765917 -0.165928E-07  0.862E-03    3.68       2.3  T
   3    -32.0765917  0.481879E-08  0.890E-04    3.68      22.0  T
   4    -32.0765917 -0.800939E-08  0.340E-04    3.68      57.7  T
   5    -32.0765917 -0.134118E-08  0.121E-04    3.68     161.9  T
   6    -32.0765917 -0.158401E-09  0.660E-05    3.68     297.3  T
   7    -32.0765917 -0.698464E-11  0.112E-05    3.68    1756.3  T
   8    -32.0765917 -0.186162E-11  0.529E-06    3.68    3709.8  T
   9    -32.0765917 -0.270006E-12  0.205E-06    3.68    9545.9  T
     SCC iter.                  ...        0 min,  0.073 sec
     gradient                   ...        0 min,  0.002 sec
 * total energy  :   -31.5557474 Eh     change       -0.6698943E-05 Eh
   gradient norm :     0.0002933 Eh/α   predicted    -0.2361509E-05 ( -64.75%)
   displ. norm   :     0.0416200 α      lambda       -0.4482672E-05
   maximum displ.:     0.0373161 α      in ANC's #1, #3, #4, ...

........................................................................
.............................. CYCLE   29 ..............................
........................................................................

 iter      E             dE          RMSdq      gap      omega  full diag
   1    -32.0765381 -0.320765E+02  0.139E-02    3.68       0.0  T
   2    -32.0765381 -0.896789E-08  0.813E-03    3.68       2.4  T
   3    -32.0765381  0.382141E-08  0.798E-04    3.68      24.6  T
   4    -32.0765381 -0.731576E-08  0.241E-04    3.68      81.4  T
   5    -32.0765381 -0.492761E-10  0.123E-04    3.68     159.4  T
   6    -32.0765381 -0.158252E-09  0.488E-05    3.68     402.0  T
   7    -32.0765381 -0.351719E-11  0.952E-06    3.68    2059.9  T
   8    -32.0765381 -0.157030E-11  0.441E-06    3.68    4443.1  T
     SCC iter.                  ...        0 min,  0.073 sec
     gradient                   ...        0 min,  0.002 sec
 * total energy  :   -31.5557538 Eh     change       -0.6433393E-05 Eh
   gradient norm :     0.0002817 Eh/α   predicted    -0.2246212E-05 ( -65.09%)
   displ. norm   :     0.0413137 α      lambda       -0.4394983E-05
   maximum displ.:     0.0366478 α      in ANC's #1, #3, #4, ...

........................................................................
.............................. CYCLE   30 ..............................
........................................................................

 iter      E             dE          RMSdq      gap      omega  full diag
   1    -32.0765178 -0.320765E+02  0.136E-02    3.68       0.0  T
   2    -32.0765178 -0.969759E-08  0.800E-03    3.68       2.5  T
   3    -32.0765178  0.636902E-09  0.636E-04    3.68      30.8  T
   4    -32.0765178 -0.359891E-08  0.235E-04    3.68      83.6  T
   5    -32.0765178 -0.310116E-09  0.107E-04    3.68     183.6  T
   6    -32.0765178 -0.142791E-09  0.514E-05    3.68     381.8  T
   7    -32.0765178 -0.517275E-11  0.768E-06    3.68    2552.4  T
   8    -32.0765178 -0.270006E-12  0.402E-06    3.68    4884.1  T
     SCC iter.                  ...        0 min,  0.073 sec
     gradient                   ...        0 min,  0.002 sec
 * total energy  :   -31.5557602 Eh     change       -0.6397825E-05 Eh
   gradient norm :     0.0004124 Eh/α   predicted    -0.2199544E-05 ( -65.62%)
   displ. norm   :     0.0430307 α      lambda       -0.4550347E-05
   maximum displ.:     0.0375471 α      in ANC's #1, #3, #9, ...

........................................................................
.............................. CYCLE   31 ..............................
........................................................................

 iter      E             dE          RMSdq      gap      omega  full diag
   1    -32.0765275 -0.320765E+02  0.141E-02    3.68       0.0  T
   2    -32.0765276 -0.927345E-08  0.828E-03    3.68       2.4  T
   3    -32.0765276 -0.490907E-09  0.549E-04    3.68      35.7  T
   4    -32.0765276 -0.263368E-08  0.217E-04    3.68      90.5  T
   5    -32.0765276 -0.260805E-09  0.100E-04    3.68     195.7  T
   6    -32.0765276 -0.912621E-10  0.450E-05    3.68     436.3  T
   7    -32.0765276 -0.504485E-11  0.735E-06    3.68    2668.0  T
   8    -32.0765276 -0.248690E-12  0.326E-06    3.68    6009.6  T
     SCC iter.                  ...        0 min,  0.073 sec
     gradient                   ...        0 min,  0.002 sec
 * total energy  :   -31.5557668 Eh     change       -0.6656901E-05 Eh
   gradient norm :     0.0004505 Eh/α   predicted    -0.2280327E-05 ( -65.74%)
   displ. norm   :     0.0465413 α      lambda       -0.4895402E-05
   maximum displ.:     0.0401368 α      in ANC's #1, #3, #9, ...

........................................................................
.............................. CYCLE   32 ..............................
........................................................................

 iter      E             dE          RMSdq      gap      omega  full diag
   1    -32.0765337 -0.320765E+02  0.157E-02    3.68       0.0  T
   2    -32.0765337 -0.115659E-07  0.919E-03    3.68       2.1  T
   3    -32.0765337 -0.139046E-08  0.638E-04    3.68      30.7  T
   4    -32.0765337 -0.245436E-08  0.231E-04    3.68      84.9  T
   5    -32.0765337 -0.111811E-09  0.121E-04    3.68     162.7  T
   6    -32.0765337 -0.143892E-09  0.564E-05    3.68     347.7  T
   7    -32.0765337 -0.877520E-11  0.849E-06    3.68    2308.7  T
   8    -32.0765337 -0.433431E-12  0.400E-06    3.68    4899.6  T
     SCC iter.                  ...        0 min,  0.073 sec
     gradient                   ...        0 min,  0.002 sec
 * total energy  :   -31.5557739 Eh     change       -0.7097735E-05 Eh
   gradient norm :     0.0003905 Eh/α   predicted    -0.2452896E-05 ( -65.44%)
   displ. norm   :     0.0497842 α      lambda       -0.5144416E-05
   maximum displ.:     0.0428389 α      in ANC's #1, #3, #5, ...

........................................................................
.............................. CYCLE   33 ..............................
........................................................................

 iter      E             dE          RMSdq      gap      omega  full diag
   1    -32.0765696 -0.320766E+02  0.170E-02    3.68       0.0  T
   2    -32.0765697 -0.165914E-07  0.999E-03    3.67       2.0  T
   3    -32.0765697 -0.118165E-08  0.663E-04    3.67      29.6  T
   4    -32.0765697 -0.339224E-08  0.264E-04    3.67      74.2  T
   5    -32.0765697 -0.460993E-09  0.126E-04    3.67     155.2  T
   6    -32.0765697 -0.127820E-09  0.542E-05    3.67     362.0  T
   7    -32.0765697 -0.854072E-11  0.106E-05    3.67    1858.5  T
   8    -32.0765697 -0.873968E-12  0.401E-06    3.67    4885.5  T
   9    -32.0765697 -0.852651E-13  0.203E-06    3.67    9643.3  T
     SCC iter.                  ...        0 min,  0.074 sec
     gradient                   ...        0 min,  0.002 sec
 * total energy  :   -31.5557814 Eh     change       -0.7418756E-05 Eh
   gradient norm :     0.0002926 Eh/α   predicted    -0.2578731E-05 ( -65.24%)
   displ. norm   :     0.0507262 α      lambda       -0.5120273E-05
   maximum displ.:     0.0441809 α      in ANC's #1, #3, #5, ...

........................................................................
.............................. CYCLE   34 ..............................
........................................................................

 iter      E             dE          RMSdq      gap      omega  full diag
   1    -32.0765997 -0.320766E+02  0.179E-02    3.68       0.0  T
   2    -32.0765997 -0.178683E-07  0.105E-02    3.67       1.9  T
   3    -32.0765997 -0.124794E-08  0.745E-04    3.67      26.3  T
   4    -32.0765997 -0.359216E-08  0.281E-04    3.67      69.7  T
   5    -32.0765997 -0.451024E-09  0.141E-04    3.67     139.3  T
   6    -32.0765997 -0.170019E-09  0.661E-05    3.67     296.6  T
   7    -32.0765997 -0.817124E-11  0.109E-05    3.67    1792.5  T
   8    -32.0765997 -0.115818E-11  0.458E-06    3.67    4284.1  T
   9    -32.0765997 -0.198952E-12  0.216E-06    3.67    9071.8  T
     SCC iter.                  ...        0 min,  0.073 sec
     gradient                   ...        0 min,  0.002 sec
 * total energy  :   -31.5557888 Eh     change       -0.7420942E-05 Eh
   gradient norm :     0.0002068 Eh/α   predicted    -0.2565784E-05 ( -65.43%)
   displ. norm   :     0.0477678 α      lambda       -0.4794802E-05
   maximum displ.:     0.0425339 α      in ANC's #1, #5, #2, ...

........................................................................
.............................. CYCLE   35 ..............................
........................................................................

 iter      E             dE          RMSdq      gap      omega  full diag
   1    -32.0766208 -0.320766E+02  0.176E-02    3.68       0.0  T
   2    -32.0766208 -0.192840E-07  0.103E-02    3.67       1.9  T
   3    -32.0766208 -0.945128E-09  0.755E-04    3.67      26.0  T
   4    -32.0766208 -0.370525E-08  0.289E-04    3.67      67.8  T
   5    -32.0766208 -0.535998E-09  0.143E-04    3.67     137.5  T
   6    -32.0766208 -0.175767E-09  0.657E-05    3.67     298.4  T
   7    -32.0766208 -0.638067E-11  0.110E-05    3.67    1786.7  T
   8    -32.0766208 -0.122924E-11  0.452E-06    3.67    4342.7  T
   9    -32.0766208 -0.191847E-12  0.216E-06    3.67    9098.6  T
     SCC iter.                  ...        0 min,  0.074 sec
     gradient                   ...        0 min,  0.002 sec
 * total energy  :   -31.5557958 Eh     change       -0.7016631E-05 Eh
   gradient norm :     0.0002035 Eh/α   predicted    -0.2400397E-05 ( -65.79%)
   displ. norm   :     0.0431077 α      lambda       -0.4434339E-05
   maximum displ.:     0.0393968 α      in ANC's #1, #5, #2, ...

........................................................................
.............................. CYCLE   36 ..............................
........................................................................

 iter      E             dE          RMSdq      gap      omega  full diag
   1    -32.0766464 -0.320766E+02  0.165E-02    3.67       0.0  T
   2    -32.0766464 -0.167985E-07  0.962E-03    3.67       2.0  T
   3    -32.0766464  0.282796E-11  0.729E-04    3.67      26.9  T
   4    -32.0766464 -0.375067E-08  0.288E-04    3.67      68.1  T
   5    -32.0766464 -0.706322E-09  0.130E-04    3.67     151.4  T
   6    -32.0766464 -0.147587E-09  0.616E-05    3.67     318.1  T
   7    -32.0766464 -0.458300E-11  0.109E-05    3.67    1795.4  T
   8    -32.0766464 -0.186162E-11  0.435E-06    3.67    4512.0  T
   9    -32.0766464 -0.227374E-12  0.192E-06    3.67   10191.2  T
     SCC iter.                  ...        0 min,  0.079 sec
     gradient                   ...        0 min,  0.002 sec
 * total energy  :   -31.5558024 Eh     change       -0.6553725E-05 Eh
   gradient norm :     0.0002249 Eh/α   predicted    -0.2220294E-05 ( -66.12%)
   displ. norm   :     0.0391228 α      lambda       -0.4188795E-05
   maximum displ.:     0.0364615 α      in ANC's #1, #5, #2, ...

........................................................................
.............................. CYCLE   37 ..............................
........................................................................

 iter      E             dE          RMSdq      gap      omega  full diag
   1    -32.0766653 -0.320767E+02  0.154E-02    3.67       0.0  T
   2    -32.0766654 -0.158042E-07  0.902E-03    3.67       2.2  T
   3    -32.0766654  0.388688E-09  0.725E-04    3.67      27.0  T
   4    -32.0766654 -0.361320E-08  0.283E-04    3.67      69.3  T
   5    -32.0766654 -0.700716E-09  0.128E-04    3.67     153.4  T
   6    -32.0766654 -0.159226E-09  0.611E-05    3.67     321.2  T
   7    -32.0766654 -0.416378E-11  0.108E-05    3.67    1814.4  T
   8    -32.0766654 -0.203215E-11  0.431E-06    3.67    4550.3  T
   9    -32.0766654 -0.206057E-12  0.193E-06    3.67   10171.5  T
     SCC iter.                  ...        0 min,  0.074 sec
     gradient                   ...        0 min,  0.002 sec
 * total energy  :   -31.5558086 Eh     change       -0.6247219E-05 Eh
   gradient norm :     0.0002500 Eh/α   predicted    -0.2097489E-05 ( -66.43%)
   displ. norm   :     0.0374847 α      lambda       -0.4187000E-05
   maximum displ.:     0.0351687 α      in ANC's #1, #5, #2, ...

........................................................................
.............................. CYCLE   38 ..............................
........................................................................

 iter      E             dE          RMSdq      gap      omega  full diag
   1    -32.0766739 -0.320767E+02  0.151E-02    3.67       0.0  T
   2    -32.0766739 -0.146647E-07  0.881E-03    3.67       2.2  T
   3    -32.0766739  0.894808E-09  0.724E-04    3.67      27.1  T
   4    -32.0766739 -0.382097E-08  0.283E-04    3.67      69.2  T
   5    -32.0766739 -0.755804E-09  0.123E-04    3.67     159.1  T
   6    -32.0766739 -0.148312E-09  0.597E-05    3.67     328.7  T
   7    -32.0766739 -0.374456E-11  0.107E-05    3.67    1833.0  T
   8    -32.0766739 -0.230926E-11  0.430E-06    3.67    4559.2  T
   9    -32.0766739 -0.191847E-12  0.195E-06    3.67   10041.5  T
     SCC iter.                  ...        0 min,  0.073 sec
     gradient                   ...        0 min,  0.002 sec
 * total energy  :   -31.5558149 Eh     change       -0.6251646E-05 Eh
   gradient norm :     0.0002568 Eh/α   predicted    -0.2096089E-05 ( -66.47%)
   displ. norm   :     0.0382280 α      lambda       -0.4369763E-05
   maximum displ.:     0.0355830 α      in ANC's #1, #3, #5, ...

........................................................................
.............................. CYCLE   39 ..............................
........................................................................

 iter      E             dE          RMSdq      gap      omega  full diag
   1    -32.0766799 -0.320767E+02  0.154E-02    3.67       0.0  T
   2    -32.0766799 -0.155116E-07  0.898E-03    3.67       2.2  T
   3    -32.0766799  0.133428E-08  0.747E-04    3.67      26.2  T
   4    -32.0766800 -0.417604E-08  0.305E-04    3.67      64.3  T
   5    -32.0766800 -0.101806E-08  0.123E-04    3.67     158.9  T
   6    -32.0766800 -0.149043E-09  0.607E-05    3.67     323.1  T
   7    -32.0766800 -0.365930E-11  0.113E-05    3.67    1741.4  T
   8    -32.0766800 -0.272848E-11  0.459E-06    3.67    4270.8  T
   9    -32.0766800 -0.106581E-12  0.210E-06    3.67    9346.2  T
     SCC iter.                  ...        0 min,  0.074 sec
     gradient                   ...        0 min,  0.002 sec
 * total energy  :   -31.5558214 Eh     change       -0.6509761E-05 Eh
   gradient norm :     0.0002524 Eh/α   predicted    -0.2187430E-05 ( -66.40%)
   displ. norm   :     0.0406627 α      lambda       -0.4651801E-05
   maximum displ.:     0.0373182 α      in ANC's #1, #3, #5, ...

........................................................................
.............................. CYCLE   40 ..............................
........................................................................

 iter      E             dE          RMSdq      gap      omega  full diag
   1    -32.0766759 -0.320767E+02  0.163E-02    3.67       0.0  T
   2    -32.0766759 -0.163742E-07  0.954E-03    3.67       2.1  T
   3    -32.0766759  0.190081E-08  0.819E-04    3.67      24.0  T
   4    -32.0766759 -0.524999E-08  0.311E-04    3.67      63.1  T
   5    -32.0766759 -0.892520E-09  0.137E-04    3.67     142.9  T
   6    -32.0766759 -0.187789E-09  0.665E-05    3.67     294.9  T
   7    -32.0766759 -0.486011E-11  0.118E-05    3.67    1658.7  T
   8    -32.0766759 -0.295586E-11  0.515E-06    3.67    3810.4  T
   9    -32.0766759 -0.127898E-12  0.239E-06    3.67    8219.9  T
     SCC iter.                  ...        0 min,  0.075 sec
     gradient                   ...        0 min,  0.002 sec
 * total energy  :   -31.5558283 Eh     change       -0.6893985E-05 Eh
   gradient norm :     0.0002337 Eh/α   predicted    -0.2328473E-05 ( -66.22%)
   displ. norm   :     0.0435968 α      lambda       -0.4900052E-05
   maximum displ.:     0.0395262 α      in ANC's #1, #3, #5, ...

........................................................................
.............................. CYCLE   41 ..............................
........................................................................

 iter      E             dE          RMSdq      gap      omega  full diag
   1    -32.0766717 -0.320767E+02  0.174E-02    3.67       0.0  T
   2    -32.0766717 -0.188195E-07  0.101E-02    3.67       1.9  T
   3    -32.0766717  0.247326E-08  0.827E-04    3.67      23.7  T
   4    -32.0766717 -0.563158E-08  0.363E-04    3.67      54.1  T
   5    -32.0766717 -0.175397E-08  0.127E-04    3.67     154.2  T
   6    -32.0766717 -0.134399E-09  0.653E-05    3.67     300.3  T
   7    -32.0766717 -0.427747E-11  0.132E-05    3.67    1485.8  T
   8    -32.0766717 -0.391509E-11  0.540E-06    3.67    3630.6  T
   9    -32.0766717 -0.206057E-12  0.244E-06    3.67    8038.6  T
     SCC iter.                  ...        0 min,  0.074 sec
     gradient                   ...        0 min,  0.002 sec
 * total energy  :   -31.5558355 Eh     change       -0.7221741E-05 Eh
   gradient norm :     0.0002099 Eh/α   predicted    -0.2452821E-05 ( -66.04%)
   displ. norm   :     0.0454104 α      lambda       -0.4972608E-05
   maximum displ.:     0.0409759 α      in ANC's #1, #3, #5, ...

........................................................................
.............................. CYCLE   42 ..............................
........................................................................

 iter      E             dE          RMSdq      gap      omega  full diag
   1    -32.0766633 -0.320767E+02  0.181E-02    3.67       0.0  T
   2    -32.0766633 -0.184483E-07  0.106E-02    3.67       1.8  T
   3    -32.0766633  0.302541E-08  0.926E-04    3.67      21.2  T
   4    -32.0766633 -0.723070E-08  0.337E-04    3.67      58.2  T
   5    -32.0766633 -0.924807E-09  0.156E-04    3.67     125.7  T
   6    -32.0766633 -0.239133E-09  0.743E-05    3.67     263.8  T
   7    -32.0766633 -0.664357E-11  0.131E-05    3.67    1498.1  T
   8    -32.0766633 -0.370193E-11  0.591E-06    3.67    3318.0  T
   9    -32.0766633 -0.241585E-12  0.270E-06    3.67    7257.8  T
     SCC iter.                  ...        0 min,  0.074 sec
     gradient                   ...        0 min,  0.002 sec
 * total energy  :   -31.5558428 Eh     change       -0.7291956E-05 Eh
   gradient norm :     0.0001914 Eh/α   predicted    -0.2489141E-05 ( -65.86%)
   displ. norm   :     0.0451885 α      lambda       -0.4814192E-05
   maximum displ.:     0.0409408 α      in ANC's #1, #3, #5, ...
 * RMSD in coord.:     0.1700144 α      energy gain  -0.1583191E-03 Eh

generating ANC from model Hessian ...
Using Lindh-Hessian (1995)
 Shifting diagonal of input Hessian by   9.185095903670582E-003
 Lowest  eigenvalues of input Hessian
    0.000000    0.000000    0.000000    0.000000    0.000000    0.000000
    0.010000    0.010196    0.010766    0.010995    0.011546    0.012889
    0.015136    0.016809    0.018478    0.018854    0.022459    0.024222
 Highest eigenvalues
    1.363754    1.553218    1.575015    1.882694    1.988486    2.004798
 

........................................................................
.............................. CYCLE   43 ..............................
........................................................................

 iter      E             dE          RMSdq      gap      omega  full diag
   1    -32.0766539 -0.320767E+02  0.180E-02    3.67       0.0  T
   2    -32.0766539 -0.193939E-07  0.105E-02    3.67       1.9  T
   3    -32.0766539  0.292057E-08  0.835E-04    3.67      23.5  T
   4    -32.0766539 -0.611499E-08  0.381E-04    3.67      51.5  T
   5    -32.0766539 -0.206089E-08  0.124E-04    3.67     158.7  T
   6    -32.0766539 -0.103633E-09  0.648E-05    3.67     302.5  T
   7    -32.0766539 -0.433431E-11  0.141E-05    3.67    1390.5  T
   8    -32.0766539 -0.465405E-11  0.552E-06    3.67    3552.4  T
   9    -32.0766539 -0.149214E-12  0.240E-06    3.67    8177.2  T
     SCC iter.                  ...        0 min,  0.074 sec
     gradient                   ...        0 min,  0.002 sec
 * total energy  :   -31.5558498 Eh     change       -0.7053856E-05 Eh
   gradient norm :     0.0001776 Eh/α   predicted     0.0000000E+00 (-100.00%)
   displ. norm   :     0.0258538 α      lambda       -0.6139680E-07
   maximum displ.:     0.0257686 α      in ANC's #1, #2, #9, ...

........................................................................
.............................. CYCLE   44 ..............................
........................................................................

 iter      E             dE          RMSdq      gap      omega  full diag
   1    -32.0766757 -0.320767E+02  0.105E-02    3.67       0.0  T
   2    -32.0766757 -0.474920E-08  0.616E-03    3.67       3.2  T
   3    -32.0766757 -0.245166E-09  0.361E-04    3.67      54.3  T
   4    -32.0766757 -0.104455E-08  0.173E-04    3.67     113.4  T
   5    -32.0766757 -0.345757E-09  0.649E-05    3.67     302.4  T
   6    -32.0766757 -0.193197E-10  0.313E-05    3.67     627.2  T
   7    -32.0766757 -0.144951E-11  0.667E-06    3.67    2940.7  T
   8    -32.0766757 -0.930811E-12  0.244E-06    3.67    8052.9  T
     SCC iter.                  ...        0 min,  0.074 sec
     gradient                   ...        0 min,  0.002 sec
 * total energy  :   -31.5558542 Eh     change       -0.4408922E-05 Eh
   gradient norm :     0.0001822 Eh/α   predicted    -0.1492656E-05 ( -66.14%)
   displ. norm   :     0.0265072 α      lambda       -0.2987294E-05
   maximum displ.:     0.0261425 α      in ANC's #1, #2, #5, ...

........................................................................
.............................. CYCLE   45 ..............................
........................................................................

 iter      E             dE          RMSdq      gap      omega  full diag
   1    -32.0766811 -0.320767E+02  0.107E-02    3.67       0.0  T
   2    -32.0766811 -0.550632E-08  0.623E-03    3.67       3.1  T
   3    -32.0766811  0.374349E-09  0.434E-04    3.67      45.2  T
   4    -32.0766811 -0.179229E-08  0.186E-04    3.67     105.6  T
   5    -32.0766811 -0.322004E-09  0.742E-05    3.67     264.4  T
   6    -32.0766811 -0.337650E-10  0.348E-05    3.67     563.7  T
   7    -32.0766811 -0.149925E-11  0.771E-06    3.67    2543.7  T
   8    -32.0766811 -0.128608E-11  0.285E-06    3.67    6873.6  T
     SCC iter.                  ...        0 min,  0.074 sec
     gradient                   ...        0 min,  0.002 sec
 * total energy  :   -31.5558587 Eh     change       -0.4484901E-05 Eh
   gradient norm :     0.0001781 Eh/α   predicted    -0.1497418E-05 ( -66.61%)
   displ. norm   :     0.0278543 α      lambda       -0.3103789E-05
   maximum displ.:     0.0269161 α      in ANC's #1, #2, #5, ...

........................................................................
.............................. CYCLE   46 ..............................
........................................................................

 iter      E             dE          RMSdq      gap      omega  full diag
   1    -32.0766683 -0.320767E+02  0.111E-02    3.67       0.0  T
   2    -32.0766683 -0.585033E-08  0.650E-03    3.67       3.0  T
   3    -32.0766683  0.872674E-09  0.491E-04    3.67      39.9  T
   4    -32.0766683 -0.250560E-08  0.189E-04    3.67     103.8  T
   5    -32.0766683 -0.318281E-09  0.846E-05    3.67     231.9  T
   6    -32.0766683 -0.585132E-10  0.409E-05    3.67     479.7  T
   7    -32.0766683 -0.206768E-11  0.777E-06    3.67    2523.3  T
   8    -32.0766683 -0.138556E-11  0.310E-06    3.67    6323.6  T
     SCC iter.                  ...        0 min,  0.074 sec
     gradient                   ...        0 min,  0.002 sec
 * total energy  :   -31.5558634 Eh     change       -0.4636289E-05 Eh
   gradient norm :     0.0001736 Eh/α   predicted    -0.1554754E-05 ( -66.47%)
   displ. norm   :     0.0303044 α      lambda       -0.3320144E-05
   maximum displ.:     0.0285712 α      in ANC's #1, #2, #5, ...

........................................................................
.............................. CYCLE   47 ..............................
........................................................................

 iter      E             dE          RMSdq      gap      omega  full diag
   1    -32.0766758 -0.320767E+02  0.120E-02    3.67       0.0  T
   2    -32.0766758 -0.781679E-08  0.701E-03    3.67       2.8  T
   3    -32.0766758  0.377753E-09  0.530E-04    3.67      37.0  T
   4    -32.0766758 -0.232742E-08  0.209E-04    3.67      93.7  T
   5    -32.0766758 -0.365553E-09  0.923E-05    3.67     212.4  T
   6    -32.0766758 -0.729159E-10  0.425E-05    3.67     461.8  T
   7    -32.0766758 -0.211031E-11  0.819E-06    3.67    2393.6  T
   8    -32.0766758 -0.113687E-11  0.337E-06    3.67    5812.5  T
     SCC iter.                  ...        0 min,  0.074 sec
     gradient                   ...        0 min,  0.002 sec
 * total energy  :   -31.5558683 Eh     change       -0.4949499E-05 Eh
   gradient norm :     0.0001719 Eh/α   predicted    -0.1662716E-05 ( -66.41%)
   displ. norm   :     0.0334668 α      lambda       -0.3593373E-05
   maximum displ.:     0.0308775 α      in ANC's #1, #2, #5, ...

........................................................................
.............................. CYCLE   48 ..............................
........................................................................

 iter      E             dE          RMSdq      gap      omega  full diag
   1    -32.0766737 -0.320767E+02  0.132E-02    3.67       0.0  T
   2    -32.0766737 -0.965403E-08  0.771E-03    3.67       2.5  T
   3    -32.0766737 -0.248122E-09  0.545E-04    3.67      36.0  T
   4    -32.0766737 -0.199520E-08  0.220E-04    3.67      89.2  T
   5    -32.0766737 -0.431619E-09  0.995E-05    3.67     197.1  T
   6    -32.0766737 -0.879510E-10  0.486E-05    3.67     403.3  T
   7    -32.0766737 -0.257216E-11  0.835E-06    3.67    2348.6  T
   8    -32.0766737 -0.116529E-11  0.346E-06    3.67    5666.3  T
     SCC iter.                  ...        0 min,  0.074 sec
     gradient                   ...        0 min,  0.002 sec
 * total energy  :   -31.5558737 Eh     change       -0.5350918E-05 Eh
   gradient norm :     0.0001737 Eh/α   predicted    -0.1800601E-05 ( -66.35%)
   displ. norm   :     0.0363960 α      lambda       -0.3837743E-05
   maximum displ.:     0.0331440 α      in ANC's #1, #2, #5, ...

........................................................................
.............................. CYCLE   49 ..............................
........................................................................

 iter      E             dE          RMSdq      gap      omega  full diag
   1    -32.0766761 -0.320767E+02  0.143E-02    3.67       0.0  T
   2    -32.0766761 -0.123324E-07  0.833E-03    3.67       2.4  T
   3    -32.0766761  0.176129E-09  0.638E-04    3.67      30.7  T
   4    -32.0766761 -0.285413E-08  0.264E-04    3.67      74.2  T
   5    -32.0766761 -0.678035E-09  0.110E-04    3.67     178.4  T
   6    -32.0766761 -0.110795E-09  0.519E-05    3.67     377.7  T
   7    -32.0766761 -0.338929E-11  0.977E-06    3.67    2008.0  T
   8    -32.0766761 -0.130029E-11  0.412E-06    3.67    4761.2  T
     SCC iter.                  ...        0 min,  0.074 sec
     gradient                   ...        0 min,  0.002 sec
 * total energy  :   -31.5558794 Eh     change       -0.5708709E-05 Eh
   gradient norm :     0.0001720 Eh/α   predicted    -0.1923624E-05 ( -66.30%)
   displ. norm   :     0.0384850 α      lambda       -0.4000598E-05
[...]
         :: add. restraining           0.000000000000 Eh    ::
         :: total charge               0.000000000000 e     ::
         :::::::::::::::::::::::::::::::::::::::::::::::::::::

           ------------------------------------------------- 
          |                Numerical Hessian                |
           ------------------------------------------------- 
step length          :   0.00500
SCC accuracy         :   0.30000
Hessian scale factor :   1.00000
frozen atoms in %    :   0.00000    0
RMS gradient         :   0.00004
estimated CPU  time      1.15 min
estimated wall time      0.14 min

writing file <hessian>.

 projected vibrational frequencies (cm⁻¹)
eigval :       -0.00    -0.00    -0.00     0.00     0.00     0.00
eigval :       23.64    54.97    72.15    94.07   144.50   168.14
eigval :      203.12   215.89   224.28   265.42   315.04   328.58
eigval :      363.10   425.27   450.88   586.09   655.63   660.15
eigval :      685.74   702.13   739.21   754.47   778.08   874.77
eigval :      898.86   926.61   932.71   968.74   974.88   997.88
eigval :     1013.22  1016.96  1071.46  1076.75  1083.10  1117.57
eigval :     1121.41  1181.65  1199.16  1220.29  1225.45  1250.43
eigval :     1255.63  1278.06  1315.62  1409.37  1411.38  1423.38
eigval :     1446.49  1451.44  1459.26  1497.29  1498.50  1501.86
eigval :     1502.27  1579.86  1589.67  2928.68  2933.98  2946.53
eigval :     2949.70  3013.13  3014.12  3020.28  3026.91  3029.68
eigval :     3033.86  3063.44  3064.01  3072.22  3077.53  3087.85
           -------------------------------------------------
          |                Property Printout                |
           -------------------------------------------------

    * Orbital Energies and Occupations

         #    Occupation            Energy/Eh            Energy/eV
      -------------------------------------------------------------
         1        2.0000           -0.6578878             -17.9020
       ...           ...                  ...                  ...
        18        2.0000           -0.4773442             -12.9892
        19        2.0000           -0.4745172             -12.9123
        20        2.0000           -0.4630419             -12.6000
        21        2.0000           -0.4621127             -12.5747
        22        2.0000           -0.4534391             -12.3387
        23        2.0000           -0.4450712             -12.1110
        24        2.0000           -0.4376530             -11.9091
        25        2.0000           -0.4231165             -11.5136
        26        2.0000           -0.4184192             -11.3858
        27        2.0000           -0.4046928             -11.0123
        28        2.0000           -0.4043158             -11.0020
        29        2.0000           -0.3967799             -10.7969
        30        2.0000           -0.3669596              -9.9855 (HOMO)
        31                         -0.2331146              -6.3434 (LUMO)
        32                         -0.2229205              -6.0660
        33                         -0.1564270              -4.2566
        34                         -0.1499283              -4.0798
        35                         -0.0930462              -2.5319
        36                          0.0052794               0.1437
        37                          0.0555630               1.5119
        38                          0.0884286               2.4063
        39                          0.0952297               2.5913
        40                          0.1354014               3.6845
        41                          0.1378622               3.7514
       ...                                ...                  ...
        64                          0.7863626              21.3980
      -------------------------------------------------------------
                  HL-Gap            0.1338450 Eh            3.6421 eV
             Fermi-level           -0.3000371 Eh           -8.1644 eV

     #   Z          covCN         q      C6AA      α(0)
     1  15 P        3.045    -0.116   165.503    23.111
     2   6 C        3.748    -0.046    21.470     6.609
     3   1 H        0.925     0.043     2.413     2.429
     4   1 H        0.926     0.038     2.469     2.457
     5   6 C        3.811    -0.098    22.357     6.730
     6   1 H        0.925     0.037     2.492     2.469
     7   1 H        0.925     0.042     2.423     2.434
     8   1 H        0.925     0.034     2.537     2.491
     9   6 C        2.916     0.008    27.844     8.653
    10   6 C        2.960    -0.029    28.711     8.789
    11   6 C        3.017    -0.030    28.737     8.793
    12   6 C        2.919    -0.031    28.782     8.798
    13   6 C        2.918    -0.030    28.740     8.791
    14   6 C        2.920    -0.029    28.732     8.790
    15   1 H        0.926     0.032     2.553     2.499
    16   1 H        0.925     0.039     2.455     2.450
    17   1 H        0.926     0.028     2.612     2.528
    18   1 H        0.926     0.030     2.581     2.512
    19   1 H        0.926     0.029     2.597     2.520
    20   6 C        3.748    -0.045    21.444     6.605
    21   1 H        0.925     0.042     2.428     2.437
    22   1 H        0.926     0.039     2.463     2.454
    23   6 C        3.819    -0.096    22.315     6.723
    24   1 H        0.925     0.036     2.506     2.476
    25   1 H        0.925     0.041     2.436     2.441
    26   1 H        0.925     0.032     2.556     2.500

 Mol. C6AA /au·bohr⁶  :       7598.548162
 Mol. C8AA /au·bohr⁸  :     202572.703067
 Mol. α(0) /au        :        139.488375


Wiberg/Mayer (AO) data.
largest (>0.10) Wiberg bond orders for each atom

 ---------------------------------------------------------------------------
     #   Z sym  total        # sym  WBO       # sym  WBO       # sym  WBO
 ---------------------------------------------------------------------------
     1  15 P    3.346 --    20 C    1.028     2 C    1.021     9 C    1.006
     2   6 C    3.995 --     1 P    1.021     5 C    1.016     4 H    0.959
                             3 H    0.951
     3   1 H    0.998 --     2 C    0.951
     4   1 H    0.998 --     2 C    0.959
     5   6 C    3.996 --     2 C    1.016     6 H    0.985     7 H    0.985
                             8 H    0.984
     6   1 H    0.999 --     5 C    0.985
     7   1 H    0.998 --     5 C    0.985
     8   1 H    0.998 --     5 C    0.984
     9   6 C    3.983 --    11 C    1.408    10 C    1.400     1 P    1.006
                            14 C    0.108
    10   6 C    3.992 --    12 C    1.449     9 C    1.400    15 H    0.961
                            13 C    0.110
    11   6 C    3.991 --    13 C    1.443     9 C    1.408    16 H    0.964
                            12 C    0.108
    12   6 C    3.993 --    10 C    1.449    14 C    1.433    17 H    0.970
                            11 C    0.108
    13   6 C    3.992 --    11 C    1.443    14 C    1.440    18 H    0.970
                            10 C    0.110
    14   6 C    3.989 --    13 C    1.440    12 C    1.433    19 H    0.971
                             9 C    0.108
    15   1 H    0.999 --    10 C    0.961
    16   1 H    0.998 --    11 C    0.964
    17   1 H    0.999 --    12 C    0.970
    18   1 H    0.999 --    13 C    0.970
    19   1 H    0.998 --    14 C    0.971
    20   6 C    3.994 --     1 P    1.028    23 C    1.016    22 H    0.957
                            21 H    0.950
    21   1 H    0.998 --    20 C    0.950
    22   1 H    0.998 --    20 C    0.957
    23   6 C    3.997 --    20 C    1.016    26 H    0.985    25 H    0.984
                            24 H    0.984
    24   1 H    0.999 --    23 C    0.984
    25   1 H    0.998 --    23 C    0.984
    26   1 H    0.999 --    23 C    0.985
 ---------------------------------------------------------------------------

Topologies differ in total number of bonds
Writing topology from bond orders to xtbtopo.mol

molecular dipole:
                 x           y           z       tot (Debye)
 q only:        0.186       0.147      -0.102
   full:        0.581       0.236      -0.151       1.640
molecular quadrupole (traceless):
                xx          xy          yy          xz          yz          zz
 q only:        0.300       0.826      -0.997      -1.948      -2.030       0.697
  q+dip:        5.014       1.717      -1.966      -5.052      -5.274      -3.049
   full:        2.785       0.822      -2.025      -5.152      -3.535      -0.760

           -------------------------------------------------
          |                Geometry Summary                 |
           -------------------------------------------------

      molecular mass/u    :      166.2002322
   center of mass at/Å    :        2.8247737      -0.6739566      -2.4685770
  moments of inertia/u·Å² :        0.3334769E+03   0.8189283E+03   0.9284115E+03
rotational constants/cm⁻¹ :        0.5055113E-01   0.2058499E-01   0.1815750E-01

 * 23 selected distances

     #   Z          #   Z                                           value/Å
     2   6 C        3   1 H                                       1.0935762
     2   6 C        4   1 H                                       1.0940857
     2   6 C        5   6 C                                       1.5225185 (max)
     5   6 C        6   1 H                                       1.0879184
     5   6 C        7   1 H                                       1.0882093
     5   6 C        8   1 H                                       1.0888964
     9   6 C       10   6 C                                       1.3901720
     9   6 C       11   6 C                                       1.3905037
    10   6 C       12   6 C                                       1.3827300
    11   6 C       13   6 C                                       1.3832971
    12   6 C       14   6 C                                       1.3852816
    13   6 C       14   6 C                                       1.3842013
    10   6 C       15   1 H                                       1.0807099
    11   6 C       16   1 H                                       1.0813667
    12   6 C       17   1 H                                       1.0809868
    13   6 C       18   1 H                                       1.0805038
    14   6 C       19   1 H                                       1.0803086 (min)
    20   6 C       21   1 H                                       1.0933143
    20   6 C       22   1 H                                       1.0938327
    20   6 C       23   6 C                                       1.5224078
    23   6 C       24   1 H                                       1.0888739
    23   6 C       25   1 H                                       1.0883681
    23   6 C       26   1 H                                       1.0889303

 * 2 distinct bonds (by element types)

   Z      Z             #   av. dist./Å        max./Å        min./Å
   1 H    6 C          15     1.0873254     1.0940857     1.0803086
   6 C    6 C           8     1.4201390     1.5225185     1.3827300

           -------------------------------------------------
          |               Frequency Printout                |
           -------------------------------------------------
 projected vibrational frequencies (cm⁻¹)
eigval :       -0.00    -0.00    -0.00     0.00     0.00     0.00
eigval :       23.64    54.97    72.15    94.07   144.50   168.14
eigval :      203.12   215.89   224.28   265.42   315.04   328.58
eigval :      363.10   425.27   450.88   586.09   655.63   660.15
eigval :      685.74   702.13   739.21   754.47   778.08   874.77
eigval :      898.86   926.61   932.71   968.74   974.88   997.88
eigval :     1013.22  1016.96  1071.46  1076.75  1083.10  1117.57
eigval :     1121.41  1181.65  1199.16  1220.29  1225.45  1250.43
eigval :     1255.63  1278.06  1315.62  1409.37  1411.38  1423.38
eigval :     1446.49  1451.44  1459.26  1497.29  1498.50  1501.86
eigval :     1502.27  1579.86  1589.67  2928.68  2933.98  2946.53
eigval :     2949.70  3013.13  3014.12  3020.28  3026.91  3029.68
eigval :     3033.86  3063.44  3064.01  3072.22  3077.53  3087.85
 reduced masses (amu)
   1: 11.38   2: 14.39   3: 14.34   4: 14.49   5: 11.39   6: 10.83   7: 10.23   8:  9.70
   9:  9.30  10:  9.29  11:  8.08  12:  6.15  13:  8.02  14:  3.90  15:  8.47  16:  9.79
  17: 13.43  18: 12.86  19:  8.83  20: 20.64  21: 10.59  22: 11.18  23: 11.97  24: 11.63
  25: 14.20  26: 15.18  27:  4.24  28:  4.06  29:  4.99  30:  3.30  31:  3.54  32:  4.19
  33:  3.01  34:  9.76  35:  3.69  36:  3.21  37:  3.68  38:  4.26  39:  9.60  40:  9.30
  41:  7.88  42:  7.46  43:  5.55  44:  1.33  45:  1.92  46:  3.70  47:  3.35  48:  4.35
  49:  4.27  50:  3.40  51: 11.95  52:  2.94  53:  2.96  54:  8.60  55:  2.54  56:  2.71
  57:  7.14  58:  1.52  59:  1.54  60:  1.55  61:  1.55  62: 11.45  63: 11.46  64:  1.92
  65:  1.92  66:  1.54  67:  1.56  68:  1.88  69:  1.86  70:  1.87  71:  1.93  72:  1.41
  73:  1.35  74:  1.76  75:  1.78  76:  1.82  77:  1.87  78:  1.92
 IR intensities (km·mol⁻¹)
   1:  0.07   2:  0.07   3:  0.03   4:  0.08   5:  0.05   6:  0.24   7:  0.22   8:  0.01
   9:  0.08  10:  0.13  11:  0.18  12:  0.27  13:  0.09  14:  0.36  15:  0.19  16:  0.34
  17:  0.08  18:  0.23  19:  0.02  20:  8.72  21:  3.11  22:  0.08  23:  5.56  24:  4.91
  25: 12.64  26: 46.13  27:  6.90  28: 17.79  29: 24.36  30:  0.15  31:  0.03  32:  0.05
  33:  0.00  34:  2.02  35:  1.72  36:  4.09  37:  2.75  38:  2.84  39:  2.61  40:  4.87
  41:  0.18  42:  4.06  43:  3.32  44:  0.01  45:  0.63  46:  1.14  47:  2.55  48:  6.61
  49:  8.37  50:  1.29  51:  0.75  52:  1.81  53:  1.95  54:  1.57  55:  0.51  56:  0.30
  57:  0.30  58:  2.85  59:  2.75  60:  1.89  61:  0.83  62:  0.58  63:  0.48  64:  5.85
  65: 39.31  66:  9.53  67: 27.40  68: 52.05  69: 49.64  70: 31.34  71: 30.43  72: 17.84
  73: 24.73  74: 16.64  75:  0.54  76: 10.15  77: 86.65  78: 61.12
 Raman intensities (Ä⁴*amu⁻¹)
   1:  0.00   2:  0.00   3:  0.00   4:  0.00   5:  0.00   6:  0.00   7:  0.00   8:  0.00
   9:  0.00  10:  0.00  11:  0.00  12:  0.00  13:  0.00  14:  0.00  15:  0.00  16:  0.00
  17:  0.00  18:  0.00  19:  0.00  20:  0.00  21:  0.00  22:  0.00  23:  0.00  24:  0.00
  25:  0.00  26:  0.00  27:  0.00  28:  0.00  29:  0.00  30:  0.00  31:  0.00  32:  0.00
  33:  0.00  34:  0.00  35:  0.00  36:  0.00  37:  0.00  38:  0.00  39:  0.00  40:  0.00
  41:  0.00  42:  0.00  43:  0.00  44:  0.00  45:  0.00  46:  0.00  47:  0.00  48:  0.00
  49:  0.00  50:  0.00  51:  0.00  52:  0.00  53:  0.00  54:  0.00  55:  0.00  56:  0.00
  57:  0.00  58:  0.00  59:  0.00  60:  0.00  61:  0.00  62:  0.00  63:  0.00  64:  0.00
  65:  0.00  66:  0.00  67:  0.00  68:  0.00  69:  0.00  70:  0.00  71:  0.00  72:  0.00
  73:  0.00  74:  0.00  75:  0.00  76:  0.00  77:  0.00  78:  0.00
 output can be read by thermo (or use thermo option).
 writing <g98.out> molden fake output.
 recommended (thermochemical) frequency scaling factor: 1.0
           -------------------------------------------------
          |             Thermodynamic Functions             |
           -------------------------------------------------

Refinement of some symmetry elements was terminated before convergence was reached.
Some symmetry elements may remain unidentified.
Molecule has no symmetry elements
It seems to be the C1 point group
c1  symmetry found (for desy threshold:  0.10E+00) used in thermo

          ...................................................
          :                      SETUP                      :
          :.................................................:
          :  # frequencies                          72      :
          :  # imaginary freq.                       0      :
          :  linear?                             false      :
          :  only rotor calc.                    false      :
          :  symmetry                               c1      :
          :  rotational number                       1      :
          :  scaling factor                  1.0000000      :
          :  rotor cutoff                   50.0000000 cm⁻¹ :
          :  imag. cutoff                  -20.0000000 cm⁻¹ :
          :.................................................:

    mode    ω/cm⁻¹     T·S(HO)/kcal·mol⁻¹    T·S(FR)/kcal·mol⁻¹   T·S(vib)
   ------------------------------------------------------------------------
       1     23.64    -1.87903 (  4.76%)    -1.27817 ( 95.24%)    -1.30676
       2     54.97    -1.38047 ( 59.36%)    -1.02835 ( 40.64%)    -1.23738
       3     72.15    -1.22060 ( 81.26%)    -0.94783 ( 18.74%)    -1.16947
       4     94.07    -1.06548 ( 92.61%)    -0.86925 (  7.39%)    -1.05098
       5    144.50    -0.81795 ( 98.59%)    -0.74211 (  1.41%)    -0.81688
       6    168.14    -0.73231 ( 99.22%)    -0.69723 (  0.78%)    -0.73204
       7    203.12    -0.62751 ( 99.63%)    -0.64125 (  0.37%)    -0.62756
       8    215.89    -0.59431 ( 99.71%)    -0.62320 (  0.29%)    -0.59439
       9    224.28    -0.57371 ( 99.75%)    -0.61189 (  0.25%)    -0.57380
      10    265.42    -0.48475 ( 99.87%)    -0.56201 (  0.13%)    -0.48485
   ------------------------------------------------------------------------

   temp. (K)  partition function   enthalpy   heat capacity  entropy
                                   cal/mol     cal/K/mol   cal/K/mol   J/K/mol
 298.15  VIB  0.271E+05             6227.183     39.301     38.548
         ROT  0.122E+07              888.752      2.981     30.825
         INT  0.329E+11             7115.935     42.282     69.373
         TR   0.207E+28             1481.254      4.968     41.214
         TOT                        8597.1890    47.2497   110.5866   462.6942

       T/K    H(0)-H(T)+PV         H(T)/Eh          T*S/Eh         G(T)/Eh
   ------------------------------------------------------------------------
    298.15    0.137005E-01    0.232278E+00    0.525432E-01    0.179735E+00
   ------------------------------------------------------------------------

         :::::::::::::::::::::::::::::::::::::::::::::::::::::
         ::                  THERMODYNAMIC                  ::
         :::::::::::::::::::::::::::::::::::::::::::::::::::::
         :: total free energy         -31.376368537420 Eh   ::
         ::.................................................::
         :: total energy              -31.556103347636 Eh   ::
         :: zero point energy           0.218577562635 Eh   ::
         :: G(RRHO) w/o ZPVE           -0.038842752419 Eh   ::
         :: G(RRHO) contrib.            0.179734810216 Eh   ::
         :::::::::::::::::::::::::::::::::::::::::::::::::::::

optimized geometry written to: xtbopt.xyz


           -------------------------------------------------
          | TOTAL ENERGY              -31.556103347636 Eh   |
          | TOTAL ENTHALPY            -31.323825292285 Eh   |
          | TOTAL FREE ENERGY         -31.376368537420 Eh   |
          | GRADIENT NORM               0.000037371596 Eh/α |
          | HOMO-LUMO GAP               3.642108366829 eV   |
           -------------------------------------------------

------------------------------------------------------------------------
 * finished run on 2025/07/14 at 11:34:58.103     
------------------------------------------------------------------------
 total:
 * wall-time:     0 d,  0 h,  0 min, 17.684 sec
 *  cpu-time:     0 d,  0 h,  3 min, 18.672 sec
 * ratio c/w:    11.234 speedup
 SCF:
 * wall-time:     0 d,  0 h,  0 min,  0.087 sec
 *  cpu-time:     0 d,  0 h,  0 min,  1.043 sec
 * ratio c/w:    11.972 speedup
 ANC optimizer:
 * wall-time:     0 d,  0 h,  0 min, 14.266 sec
 *  cpu-time:     0 d,  0 h,  2 min, 50.763 sec
 * ratio c/w:    11.970 speedup
 analytical hessian:
 * wall-time:     0 d,  0 h,  0 min,  3.321 sec
 *  cpu-time:     0 d,  0 h,  0 min, 26.763 sec
 * ratio c/w:     8.059 speedup

