      -----------------------------------------------------------      
     |                   =====================                   |     
     |                           x T B                           |     
     |                   =====================                   |     
     |                         S. Grimme                         |     
     |          Mulliken Center for Theoretical Chemistry        |     
     |                    University of Bonn                     |     
      -----------------------------------------------------------      

   * xtb version 6.7.0 (08769fc) compiled by 'albert@albert-system' on 2024-03-04

   xtb is free software: you can redistribute it and/or modify it under
   the terms of the GNU Lesser General Public License as published by
   the Free Software Foundation, either version 3 of the License, or
   (at your option) any later version.
   
   xtb is distributed in the hope that it will be useful,
   but WITHOUT ANY WARRANTY; without even the implied warranty of
   MERCHANTABILITY or FITNESS FOR A PARTICULAR PURPOSE.  See the
   GNU Lesser General Public License for more details.
   
   Cite this work as:
   * C. Bannwarth, E. Caldeweyher, S. Ehlert, A. Hansen, P. Pracht,
     J. Seibert, S. Spicher, S. Grimme, WIREs Comput. Mol. Sci., 2020, 11,
     e01493. DOI: 10.1002/wcms.1493
   
   for GFN2-xTB:
   * C. Bannwarth, S. Ehlert and S. Grimme., J. Chem. Theory Comput., 2019,
     15, 1652-1671. DOI: 10.1021/acs.jctc.8b01176
   for GFN1-xTB:
   * S. Grimme, C. Bannwarth, P. Shushkov, J. Chem. Theory Comput., 2017,
     13, 1989-2009. DOI: 10.1021/acs.jctc.7b00118
   for GFN0-xTB:
   * P. Pracht, E. Caldeweyher, S. Ehlert, S. Grimme, ChemRxiv, 2019, preprint.
     DOI: 10.26434/chemrxiv.8326202.v1
   for GFN-FF:
   * S. Spicher and S. Grimme, Angew. Chem. Int. Ed., 2020, 59, 15665-15673.
     DOI: 10.1002/anie.202004239
   
   for ALPB and GBSA implicit solvation:
   * S. Ehlert, M. Stahn, S. Spicher, S. Grimme, J. Chem. Theory Comput.,
     2021, 17, 4250-4261. DOI: 10.1021/acs.jctc.1c00471
   
   for ddCOSMO and CPCM-X implicit solvation:
   * M. Stahn, S. Ehlert, S. Grimme, J. Phys. Chem. A,
     2023, XX, XXXX-XXXX. DOI: 10.1021/acs.jpca.3c04382
   
   for DFT-D4:
   * E. Caldeweyher, C. Bannwarth and S. Grimme, J. Chem. Phys., 2017,
     147, 034112. DOI: 10.1063/1.4993215
   * E. Caldeweyher, S. Ehlert, A. Hansen, H. Neugebauer, S. Spicher,
     C. Bannwarth and S. Grimme, J. Chem. Phys., 2019, 150, 154122.
     DOI: 10.1063/1.5090222
   * E. Caldeweyher, J.-M. Mewes, S. Ehlert and S. Grimme, Phys. Chem. Chem. Phys.
     2020, 22, 8499-8512. DOI: 10.1039/D0CP00502A
   
   for sTDA-xTB:
   * S. Grimme and C. Bannwarth, J. Chem. Phys., 2016, 145, 054103.
     DOI: 10.1063/1.4959605
   
   in the mass-spec context:
   * V. Asgeirsson, C. Bauer and S. Grimme, Chem. Sci., 2017, 8, 4879.
     DOI: 10.1039/c7sc00601b
   * J. Koopman and S. Grimme, ACS Omega 2019, 4, 12, 15120-15133.
     DOI: 10.1021/acsomega.9b02011
   
   for metadynamics refer to:
   * S. Grimme, J. Chem. Theory Comput., 2019, 155, 2847-2862
     DOI: 10.1021/acs.jctc.9b00143
   
   for SPH calculations refer to:
   * S. Spicher and S. Grimme, J. Chem. Theory Comput., 2021, 17, 1701-1714
     DOI: 10.1021/acs.jctc.0c01306
   
   for ONIOM refer to:
   * C. Plett, A. Katbashev, S. Ehlert, S. Grimme, M. Bursch,
     Phys. Chem. Chem. Phys., 2023, 25, 17860-17868. DOI: 10.1039/D3CP02178E
   
   for DIPRO refer to:
   * J. Kohn, N. Gildemeister, S. Grimme, D. Fazzi, A. Hansen,
     J. Chem. Phys., 2023, just accepted.
   
   for PTB refer to:
   * S. Grimme, M. Mueller, A. Hansen, J. Chem. Phys., 2023, 158, 124111.
     DOI: 10.1063/5.0137838
   
   with help from (in alphabetical order)
   P. Atkinson, C. Bannwarth, F. Bohle, G. Brandenburg, E. Caldeweyher
   M. Checinski, S. Dohm, S. Ehlert, S. Ehrlich, I. Gerasimov, C. Hölzer
   A. Katbashev, J. Kohn, J. Koopman, C. Lavigne, S. Lehtola, F. März, M. Müller,
   F. Musil, H. Neugebauer, J. Pisarek, C. Plett, P. Pracht, F. Pultar,
   J. Seibert, P. Shushkov, S. Spicher, M. Stahn, M. Steiner, T. Strunk,
   J. Stückrath, T. Rose, and J. Unsleber
   
 * started run on 2025/07/14 at 11:27:38.351     
   ID    Z sym.   atoms
    1   15 P      1
    2    6 C      2, 5, 9-14, 20, 23
    3    1 H      3, 4, 6-8, 15-19, 21, 22, 24-26

           -------------------------------------------------
          |                Calculation Setup                |
           -------------------------------------------------

          program call               : /home/minenky/programs/xtb/xtb-dist/bin/xtb m1_00_PEt2Ph-PBE0-D3-TZ-uniMM_19.xyz --charge 0 --T --ohess extreme --cycles 5000 --acc 0.01 --iterations 5000
          coordinate file            : m1_00_PEt2Ph-PBE0-D3-TZ-uniMM_19.xyz
          omp threads                :                    12

########################################################################
[WARNING] Please study the warnings concerning your input carefully
-1- prog_main_parseArguments: Unknown option '--T' provided
########################################################################

           -------------------------------------------------
          |                 G F N 2 - x T B                 |
           -------------------------------------------------

        Reference                      10.1021/acs.jctc.8b01176
      * Hamiltonian:
        H0-scaling (s, p, d)           1.850000    2.230000    2.230000
        zeta-weighting                 0.500000
      * Dispersion:
        s8                             2.700000
        a1                             0.520000
        a2                             5.000000
        s9                             5.000000
      * Repulsion:
        kExp                           1.500000    1.000000
        rExp                           1.000000
      * Coulomb:
        alpha                          2.000000
        third order                    shell-resolved
        anisotropic                    true
        a3                             3.000000
        a5                             4.000000
        cn-shift                       1.200000
        cn-exp                         4.000000
        max-rad                        5.000000


          ...................................................
          :                      SETUP                      :
          :.................................................:
          :  # basis functions                  65          :
          :  # atomic orbitals                  64          :
          :  # shells                           38          :
          :  # electrons                        60          :
          :  max. iterations                  5000          :
          :  Hamiltonian                  GFN2-xTB          :
          :  restarted?                      false          :
          :  GBSA solvation                  false          :
          :  PC potential                    false          :
          :  electronic temp.          300.0000000     K    :
          :  accuracy                    0.0100000          :
          :  -> integral cutoff          0.4500000E+02      :
          :  -> integral neglect         0.1000000E-09      :
          :  -> SCF convergence          0.1000000E-07 Eh   :
          :  -> wf. convergence          0.1000000E-05 e    :
          :  Broyden damping             0.4000000          :
          :  net charge                          0          :
          :  unpaired electrons                  0          :
          ...................................................

 iter      E             dE          RMSdq      gap      omega  full diag
   1    -32.0148466 -0.320148E+02  0.394E+00    3.97       0.0  T
   2    -32.0598504 -0.450038E-01  0.231E+00    3.54       1.0  T
   3    -32.0592993  0.551102E-03  0.954E-01    3.26       1.0  T
   4    -32.0608689 -0.156956E-02  0.279E-01    3.30       1.0  T
   5    -32.0620742 -0.120538E-02  0.120E-01    3.35       1.0  T
   6    -32.0622767 -0.202463E-03  0.471E-02    3.34       1.0  T
   7    -32.0622947 -0.180077E-04  0.166E-02    3.34       1.2  T
   8    -32.0622958 -0.109606E-05  0.682E-03    3.34       2.9  T
   9    -32.0622962 -0.345332E-06  0.145E-03    3.34      13.5  T
  10    -32.0622962 -0.282485E-07  0.578E-04    3.34      34.0  T
  11    -32.0622962 -0.529980E-09  0.250E-04    3.34      78.3  T
  12    -32.0622962 -0.522370E-09  0.658E-05    3.34     298.0  T
  13    -32.0622962 -0.530775E-11  0.293E-05    3.34     668.6  T
  14    -32.0622962 -0.143530E-11  0.101E-05    3.34    1942.4  T
  15    -32.0622962 -0.305533E-12  0.336E-06    3.34    5832.9  T
  16    -32.0622962 -0.639488E-13  0.194E-06    3.34   10111.8  T

   *** convergence criteria satisfied after 16 iterations ***

         #    Occupation            Energy/Eh            Energy/eV
      -------------------------------------------------------------
         1        2.0000           -0.6597797             -17.9535
       ...           ...                  ...                  ...
        24        2.0000           -0.4395611             -11.9611
        25        2.0000           -0.4250697             -11.5667
        26        2.0000           -0.4187320             -11.3943
        27        2.0000           -0.4081969             -11.1076
        28        2.0000           -0.4029199             -10.9640
        29        2.0000           -0.4005411             -10.8993
        30        2.0000           -0.3543210              -9.6416 (HOMO)
        31                         -0.2314768              -6.2988 (LUMO)
        32                         -0.2229356              -6.0664
        33                         -0.1515332              -4.1234
        34                         -0.1373079              -3.7363
        35                         -0.0945221              -2.5721
       ...                                ...                  ...
        64                          0.7985802              21.7305
      -------------------------------------------------------------
                  HL-Gap            0.1228442 Eh            3.3428 eV
             Fermi-level           -0.2928989 Eh           -7.9702 eV

 SCC (total)                   0 d,  0 h,  0 min,  0.087 sec
 SCC setup                      ...        0 min,  0.000 sec (  0.161%)
 Dispersion                     ...        0 min,  0.000 sec (  0.139%)
 classical contributions        ...        0 min,  0.000 sec (  0.012%)
 integral evaluation            ...        0 min,  0.002 sec (  2.134%)
 iterations                     ...        0 min,  0.083 sec ( 95.395%)
 molecular gradient             ...        0 min,  0.002 sec (  2.048%)
 printout                       ...        0 min,  0.000 sec (  0.092%)

         :::::::::::::::::::::::::::::::::::::::::::::::::::::
         ::                     SUMMARY                     ::
         :::::::::::::::::::::::::::::::::::::::::::::::::::::
         :: total energy             -31.547608353663 Eh    ::
         :: gradient norm              0.046356133094 Eh/a0 ::
         :: HOMO-LUMO gap              3.342759620925 eV    ::
         ::.................................................::
         :: SCC energy               -32.062193703521 Eh    ::
         :: -> isotropic ES            0.004156225451 Eh    ::
         :: -> anisotropic ES          0.006051675357 Eh    ::
         :: -> anisotropic XC          0.022169726493 Eh    ::
         :: -> dispersion             -0.023140121393 Eh    ::
         :: repulsion energy           0.514585349858 Eh    ::
         :: add. restraining           0.000000000000 Eh    ::
         :: total charge               0.000000000000 e     ::
         :::::::::::::::::::::::::::::::::::::::::::::::::::::

      ----------------------------------------------------------- 
     |                   =====================                   |
     |                        A N C O P T                        |
     |                   =====================                   |
     |               Approximate Normal Coordinate               |
     |                Rational Function Optimizer                |
      ----------------------------------------------------------- 
      ----------------------------------------------------------- 
     |                   =====================                   |
     |                        A N C O P T                        |
     |                   =====================                   |
     |               Approximate Normal Coordinate               |
     |                Rational Function Optimizer                |
      ----------------------------------------------------------- 

          ...................................................
          :                      SETUP                      :
          :.................................................:
          :   optimization level           extreme          :
          :   max. optcycles                  5000          :
          :   ANC micro-cycles                  20          :
          :   degrees of freedom                72          :
          :.................................................:
          :   RF solver                   davidson          :
          :   write xtbopt.log                true          :
          :   linear?                        false          :
          :   energy convergence         0.5000000E-07 Eh   :
          :   grad. convergence          0.5000000E-04 Eh/α :
          :   maxmium RF displ.          1.0000000          :
          :   Hlow (freq-cutoff)         0.1000000E-01      :
          :   Hmax (freq-cutoff)         5.0000000          :
          :   S6 in model hess.         20.0000000          :
          ...................................................

generating ANC from model Hessian ...
Using Lindh-Hessian (1995)
 Shifting diagonal of input Hessian by   9.273138850165147E-003
 Lowest  eigenvalues of input Hessian
    0.000000    0.000000    0.000000    0.000000    0.000000    0.000000
    0.010000    0.010358    0.010806    0.011014    0.011803    0.013075
    0.016099    0.018307    0.018440    0.019497    0.020570    0.023833
 Highest eigenvalues
    1.347100    1.535110    1.561921    1.864155    1.965833    1.985733
 

........................................................................
.............................. CYCLE    1 ..............................
........................................................................

 iter      E             dE          RMSdq      gap      omega  full diag
   1    -32.0622962 -0.320623E+02  0.689E-07    3.34       0.0  T
   2    -32.0622962  0.213163E-13  0.354E-07    3.34   55387.4  T
   3    -32.0622962 -0.355271E-13  0.261E-07    3.34   75227.4  T
     SCC iter.                  ...        0 min,  0.073 sec
     gradient                   ...        0 min,  0.002 sec
 * total energy  :   -31.5476084 Eh     change       -0.3552714E-13 Eh
   gradient norm :     0.0463561 Eh/α   predicted     0.0000000E+00 (-100.00%)
   displ. norm   :     0.3342771 α      lambda       -0.8632903E-02
   maximum displ.:     0.1906552 α      in ANC's #8, #13, #42, ...

........................................................................
.............................. CYCLE    2 ..............................
........................................................................

 iter      E             dE          RMSdq      gap      omega  full diag
   1    -32.0667424 -0.320667E+02  0.455E-01    3.63       0.0  T
   2    -32.0670150 -0.272573E-03  0.207E-01    3.68       1.0  T
   3    -32.0670421 -0.271792E-04  0.638E-02    3.72       1.0  T
   4    -32.0670343  0.784763E-05  0.310E-02    3.71       1.0  T
   5    -32.0670487 -0.144101E-04  0.953E-03    3.71       2.1  T
   6    -32.0670497 -0.103333E-05  0.297E-03    3.71       6.6  T
   7    -32.0670497  0.258067E-08  0.110E-03    3.71      17.8  T
   8    -32.0670497 -0.457132E-08  0.384E-04    3.71      51.1  T
   9    -32.0670497 -0.259141E-08  0.103E-04    3.71     189.9  T
  10    -32.0670497 -0.663150E-10  0.457E-05    3.71     429.4  T
  11    -32.0670497 -0.808598E-11  0.120E-05    3.71    1636.3  T
  12    -32.0670497 -0.383693E-12  0.432E-06    3.71    4540.7  T
  13    -32.0670497 -0.149214E-12  0.201E-06    3.71    9733.7  T
     SCC iter.                  ...        0 min,  0.077 sec
     gradient                   ...        0 min,  0.002 sec
 * total energy  :   -31.5518197 Eh     change       -0.4211356E-02 Eh
   gradient norm :     0.0125608 Eh/α   predicted    -0.4798975E-02 (  13.95%)
   displ. norm   :     0.2176202 α      lambda       -0.1103208E-02
   maximum displ.:     0.1022722 α      in ANC's #8, #6, #4, ...

........................................................................
.............................. CYCLE    3 ..............................
........................................................................

 iter      E             dE          RMSdq      gap      omega  full diag
   1    -32.0710176 -0.320710E+02  0.101E-01    3.69       0.0  T
   2    -32.0710207 -0.307236E-05  0.543E-02    3.68       1.0  T
   3    -32.0710198  0.879706E-06  0.126E-02    3.67       1.6  T
   4    -32.0710209 -0.108338E-05  0.526E-03    3.68       3.7  T
   5    -32.0710213 -0.388250E-06  0.100E-03    3.68      19.5  T
   6    -32.0710213 -0.991316E-08  0.687E-04    3.68      28.6  T
   7    -32.0710213 -0.266716E-08  0.211E-04    3.68      92.9  T
   8    -32.0710213 -0.887468E-10  0.819E-05    3.68     239.4  T
   9    -32.0710213 -0.913047E-10  0.260E-05    3.68     754.8  T
  10    -32.0710213 -0.257927E-11  0.128E-05    3.68    1536.2  T
  11    -32.0710213 -0.738964E-12  0.433E-06    3.68    4530.3  T
  12    -32.0710213 -0.177636E-12  0.141E-06    3.68   13892.2  T
     SCC iter.                  ...        0 min,  0.075 sec
     gradient                   ...        0 min,  0.002 sec
 * total energy  :   -31.5525985 Eh     change       -0.7788270E-03 Eh
   gradient norm :     0.0051805 Eh/α   predicted    -0.5777857E-03 ( -25.81%)
   displ. norm   :     0.2673702 α      lambda       -0.5874966E-03
   maximum displ.:     0.1315315 α      in ANC's #4, #6, #8, ...

........................................................................
.............................. CYCLE    4 ..............................
........................................................................

 iter      E             dE          RMSdq      gap      omega  full diag
   1    -32.0727340 -0.320727E+02  0.877E-02    3.67       0.0  T
   2    -32.0727350 -0.102657E-05  0.490E-02    3.67       1.0  T
   3    -32.0727335  0.145289E-05  0.106E-02    3.66       1.9  T
   4    -32.0727353 -0.174813E-05  0.334E-03    3.67       5.9  T
   5    -32.0727354 -0.118993E-06  0.114E-03    3.67      17.1  T
   6    -32.0727354 -0.233957E-08  0.493E-04    3.67      39.8  T
   7    -32.0727354 -0.126058E-08  0.119E-04    3.67     165.2  T
   8    -32.0727354 -0.637641E-10  0.497E-05    3.67     394.9  T
   9    -32.0727354 -0.231282E-10  0.216E-05    3.67     909.5  T
  10    -32.0727354 -0.213873E-11  0.947E-06    3.67    2070.9  T
  11    -32.0727354 -0.156319E-12  0.372E-06    3.67    5269.7  T
     SCC iter.                  ...        0 min,  0.075 sec
     gradient                   ...        0 min,  0.002 sec
 * total energy  :   -31.5529797 Eh     change       -0.3811636E-03 Eh
   gradient norm :     0.0032903 Eh/α   predicted    -0.3147506E-03 ( -17.42%)
   displ. norm   :     0.1882830 α      lambda       -0.1958593E-03
   maximum displ.:     0.1051836 α      in ANC's #4, #5, #6, ...

........................................................................
.............................. CYCLE    5 ..............................
........................................................................

 iter      E             dE          RMSdq      gap      omega  full diag
   1    -32.0730111 -0.320730E+02  0.497E-02    3.67       0.0  T
   2    -32.0730117 -0.538071E-06  0.288E-02    3.67       1.0  T
   3    -32.0730113  0.434608E-06  0.579E-03    3.67       3.4  T
   4    -32.0730117 -0.427116E-06  0.268E-03    3.67       7.3  T
   5    -32.0730118 -0.145167E-06  0.501E-04    3.67      39.1  T
   6    -32.0730118 -0.565059E-09  0.239E-04    3.67      82.0  T
   7    -32.0730118 -0.196962E-10  0.646E-05    3.67     303.4  T
   8    -32.0730118 -0.312070E-10  0.214E-05    3.67     917.4  T
   9    -32.0730118 -0.443379E-11  0.970E-06    3.67    2021.3  T
  10    -32.0730118 -0.973444E-12  0.364E-06    3.67    5381.3  T
     SCC iter.                  ...        0 min,  0.074 sec
     gradient                   ...        0 min,  0.002 sec
 * total energy  :   -31.5531275 Eh     change       -0.1477963E-03 Eh
   gradient norm :     0.0032749 Eh/α   predicted    -0.1014016E-03 ( -31.39%)
   displ. norm   :     0.2178250 α      lambda       -0.1739446E-03
   maximum displ.:     0.1197999 α      in ANC's #4, #5, #6, ...

........................................................................
.............................. CYCLE    6 ..............................
........................................................................

 iter      E             dE          RMSdq      gap      omega  full diag
   1    -32.0730265 -0.320730E+02  0.615E-02    3.67       0.0  T
   2    -32.0730273 -0.826882E-06  0.356E-02    3.67       1.0  T
   3    -32.0730270  0.280393E-06  0.600E-03    3.67       3.3  T
   4    -32.0730273 -0.304002E-06  0.262E-03    3.67       7.5  T
   5    -32.0730274 -0.124421E-06  0.926E-04    3.67      21.2  T
   6    -32.0730275 -0.745116E-08  0.295E-04    3.67      66.5  T
   7    -32.0730275  0.111697E-10  0.752E-05    3.67     260.6  T
   8    -32.0730275 -0.537455E-10  0.283E-05    3.67     693.6  T
   9    -32.0730275 -0.816414E-11  0.121E-05    3.67    1614.8  T
  10    -32.0730275 -0.127898E-11  0.491E-06    3.67    3990.3  T
  11    -32.0730275 -0.710543E-13  0.175E-06    3.67   11190.4  T
     SCC iter.                  ...        0 min,  0.075 sec
     gradient                   ...        0 min,  0.002 sec
 * total energy  :   -31.5532597 Eh     change       -0.1322174E-03 Eh
   gradient norm :     0.0022799 Eh/α   predicted    -0.9110473E-04 ( -31.09%)
   displ. norm   :     0.2390142 α      lambda       -0.1425331E-03
   maximum displ.:     0.1261898 α      in ANC's #4, #5, #1, ...

........................................................................
.............................. CYCLE    7 ..............................
........................................................................

 iter      E             dE          RMSdq      gap      omega  full diag
   1    -32.0727735 -0.320728E+02  0.723E-02    3.67       0.0  T
   2    -32.0727743 -0.793492E-06  0.419E-02    3.67       1.0  T
   3    -32.0727742  0.977016E-07  0.535E-03    3.67       3.7  T
   4    -32.0727744 -0.185032E-06  0.204E-03    3.67       9.6  T
   5    -32.0727744 -0.382193E-07  0.960E-04    3.67      20.4  T
   6    -32.0727744 -0.118196E-07  0.309E-04    3.67      63.4  T
   7    -32.0727744  0.375806E-10  0.758E-05    3.67     258.9  T
   8    -32.0727744 -0.825153E-10  0.254E-05    3.67     773.2  T
   9    -32.0727744 -0.428457E-11  0.124E-05    3.67    1577.3  T
  10    -32.0727744 -0.137135E-11  0.526E-06    3.67    3725.3  T
  11    -32.0727744 -0.355271E-13  0.174E-06    3.67   11289.5  T
     SCC iter.                  ...        0 min,  0.074 sec
     gradient                   ...        0 min,  0.002 sec
 * total energy  :   -31.5533669 Eh     change       -0.1072089E-03 Eh
   gradient norm :     0.0023177 Eh/α   predicted    -0.7533970E-04 ( -29.73%)
   displ. norm   :     0.2418932 α      lambda       -0.1115725E-03
   maximum displ.:     0.1169569 α      in ANC's #1, #4, #5, ...

........................................................................
.............................. CYCLE    8 ..............................
........................................................................

 iter      E             dE          RMSdq      gap      omega  full diag
   1    -32.0727045 -0.320727E+02  0.756E-02    3.67       0.0  T
   2    -32.0727050 -0.515472E-06  0.444E-02    3.67       1.0  T
   3    -32.0727050  0.239431E-07  0.425E-03    3.67       4.6  T
   4    -32.0727051 -0.117577E-06  0.162E-03    3.67      12.1  T
   5    -32.0727051 -0.136141E-07  0.651E-04    3.67      30.1  T
   6    -32.0727051 -0.458404E-08  0.290E-04    3.67      67.6  T
   7    -32.0727051 -0.553513E-10  0.575E-05    3.67     341.3  T
   8    -32.0727051 -0.389377E-10  0.214E-05    3.67     915.3  T
   9    -32.0727051 -0.504485E-12  0.107E-05    3.67    1839.1  T
  10    -32.0727051 -0.176215E-11  0.408E-06    3.67    4801.9  T
  11    -32.0727051 -0.213163E-13  0.133E-06    3.67   14715.6  T
     SCC iter.                  ...        0 min,  0.075 sec
     gradient                   ...        0 min,  0.002 sec
 * total energy  :   -31.5534491 Eh     change       -0.8212744E-04 Eh
   gradient norm :     0.0030173 Eh/α   predicted    -0.5905198E-04 ( -28.10%)
   displ. norm   :     0.1806066 α      lambda       -0.7736208E-04
   maximum displ.:     0.1010092 α      in ANC's #1, #2, #5, ...

........................................................................
.............................. CYCLE    9 ..............................
........................................................................

 iter      E             dE          RMSdq      gap      omega  full diag
   1    -32.0733957 -0.320734E+02  0.575E-02    3.67       0.0  T
   2    -32.0733960 -0.275180E-06  0.341E-02    3.67       1.0  T
   3    -32.0733959  0.566625E-07  0.317E-03    3.67       6.2  T
   4    -32.0733961 -0.102393E-06  0.125E-03    3.67      15.7  T
   5    -32.0733961 -0.161638E-07  0.499E-04    3.67      39.3  T
   6    -32.0733961 -0.269010E-08  0.231E-04    3.67      84.7  T
   7    -32.0733961 -0.810800E-10  0.645E-05    3.67     304.2  T
   8    -32.0733961 -0.564526E-10  0.213E-05    3.67     922.5  T
   9    -32.0733961 -0.583356E-11  0.119E-05    3.67    1645.5  T
  10    -32.0733961 -0.326850E-12  0.228E-06    3.67    8588.8  T
  11    -32.0733961 -0.284217E-13  0.755E-07    3.67   25963.0  T
     SCC iter.                  ...        0 min,  0.074 sec
     gradient                   ...        0 min,  0.002 sec
 * total energy  :   -31.5535104 Eh     change       -0.6135215E-04 Eh
   gradient norm :     0.0026996 Eh/α   predicted    -0.3994503E-04 ( -34.89%)
   displ. norm   :     0.1860283 α      lambda       -0.7756253E-04
   maximum displ.:     0.1118806 α      in ANC's #1, #2, #5, ...

........................................................................
.............................. CYCLE   10 ..............................
........................................................................

 iter      E             dE          RMSdq      gap      omega  full diag
   1    -32.0738776 -0.320739E+02  0.569E-02    3.67       0.0  T
   2    -32.0738779 -0.269175E-06  0.337E-02    3.67       1.0  T
   3    -32.0738778  0.115723E-06  0.318E-03    3.67       6.2  T
   4    -32.0738779 -0.155811E-06  0.125E-03    3.67      15.6  T
   5    -32.0738779 -0.285747E-07  0.550E-04    3.67      35.7  T
   6    -32.0738779 -0.228459E-08  0.227E-04    3.67      86.3  T
   7    -32.0738779  0.405933E-10  0.801E-05    3.67     244.7  T
   8    -32.0738779 -0.102744E-09  0.213E-05    3.67     921.7  T
   9    -32.0738779 -0.369482E-11  0.108E-05    3.67    1810.4  T
  10    -32.0738779 -0.369482E-12  0.318E-06    3.67    6175.4  T
  11    -32.0738779 -0.923706E-13  0.924E-07    3.67   21228.2  T
     SCC iter.                  ...        0 min,  0.075 sec
     gradient                   ...        0 min,  0.002 sec
 * total energy  :   -31.5535761 Eh     change       -0.6572077E-04 Eh
   gradient norm :     0.0022864 Eh/α   predicted    -0.4012750E-04 ( -38.94%)
   displ. norm   :     0.2401657 α      lambda       -0.1030300E-03
   maximum displ.:     0.1495676 α      in ANC's #1, #2, #3, ...

........................................................................
.............................. CYCLE   11 ..............................
........................................................................

 iter      E             dE          RMSdq      gap      omega  full diag
   1    -32.0742071 -0.320742E+02  0.691E-02    3.66       0.0  T
   2    -32.0742075 -0.389594E-06  0.408E-02    3.66       1.0  T
   3    -32.0742073  0.145659E-06  0.354E-03    3.66       5.5  T
   4    -32.0742075 -0.198350E-06  0.150E-03    3.66      13.1  T
   5    -32.0742076 -0.474498E-07  0.637E-04    3.66      30.8  T
   6    -32.0742076 -0.270417E-08  0.265E-04    3.66      73.9  T
   7    -32.0742076  0.625420E-10  0.988E-05    3.66     198.4  T
   8    -32.0742076 -0.147345E-09  0.279E-05    3.66     703.7  T
   9    -32.0742076 -0.370193E-11  0.140E-05    3.66    1401.1  T
  10    -32.0742076 -0.824230E-12  0.398E-06    3.66    4928.6  T
  11    -32.0742076 -0.120792E-12  0.140E-06    3.66   14008.5  T
     SCC iter.                  ...        0 min,  0.075 sec
     gradient                   ...        0 min,  0.002 sec
 * total energy  :   -31.5536652 Eh     change       -0.8908506E-04 Eh
   gradient norm :     0.0025033 Eh/α   predicted    -0.5448799E-04 ( -38.84%)
   displ. norm   :     0.3672786 α      lambda       -0.1503126E-03
   maximum displ.:     0.2290011 α      in ANC's #1, #2, #3, ...

........................................................................
.............................. CYCLE   12 ..............................
........................................................................

 iter      E             dE          RMSdq      gap      omega  full diag
   1    -32.0733563 -0.320734E+02  0.103E-01    3.65       0.0  T
   2    -32.0733569 -0.594614E-06  0.601E-02    3.66       1.0  T
   3    -32.0733568  0.154390E-06  0.426E-03    3.66       4.6  T
   4    -32.0733570 -0.252714E-06  0.206E-03    3.66       9.5  T
   5    -32.0733571 -0.102410E-06  0.668E-04    3.66      29.3  T
   6    -32.0733571 -0.612516E-09  0.319E-04    3.66      61.5  T
   7    -32.0733571 -0.127713E-09  0.104E-04    3.66     187.9  T
   8    -32.0733571 -0.185530E-09  0.327E-05    3.66     600.1  T
   9    -32.0733571 -0.352429E-11  0.120E-05    3.66    1630.6  T
  10    -32.0733571 -0.412115E-12  0.421E-06    3.66    4658.7  T
  11    -32.0733571 -0.781597E-13  0.198E-06    3.66    9902.2  T
     SCC iter.                  ...        0 min,  0.075 sec
     gradient                   ...        0 min,  0.005 sec
 * total energy  :   -31.5537878 Eh     change       -0.1225897E-03 Eh
   gradient norm :     0.0037228 Eh/α   predicted    -0.8529675E-04 ( -30.42%)
   displ. norm   :     0.4409418 α      lambda       -0.1811861E-03
   maximum displ.:     0.2768178 α      in ANC's #1, #2, #3, ...

........................................................................
.............................. CYCLE   13 ..............................
........................................................................

 iter      E             dE          RMSdq      gap      omega  full diag
   1    -32.0735645 -0.320736E+02  0.115E-01    3.65       0.0  T
   2    -32.0735656 -0.106406E-05  0.675E-02    3.65       1.0  T
   3    -32.0735654  0.144142E-06  0.466E-03    3.65       4.2  T
   4    -32.0735657 -0.265946E-06  0.265E-03    3.65       7.4  T
   5    -32.0735658 -0.151345E-06  0.842E-04    3.65      23.3  T
   6    -32.0735658 -0.132050E-08  0.382E-04    3.65      51.4  T
   7    -32.0735658 -0.927827E-10  0.167E-04    3.65     117.7  T
   8    -32.0735658 -0.340393E-09  0.506E-05    3.65     387.4  T
   9    -32.0735658 -0.395062E-11  0.260E-05    3.65     755.3  T
  10    -32.0735658 -0.410694E-11  0.591E-06    3.65    3321.1  T
  11    -32.0735658 -0.170530E-12  0.310E-06    3.65    6335.0  T
     SCC iter.                  ...        0 min,  0.078 sec
     gradient                   ...        0 min,  0.002 sec
 * total energy  :   -31.5539094 Eh     change       -0.1215662E-03 Eh
   gradient norm :     0.0044775 Eh/α   predicted    -0.1082076E-03 ( -10.99%)
   displ. norm   :     0.3460094 α      lambda       -0.1123723E-03
   maximum displ.:     0.2177394 α      in ANC's #1, #2, #3, ...

........................................................................
.............................. CYCLE   14 ..............................
........................................................................

 iter      E             dE          RMSdq      gap      omega  full diag
   1    -32.0712696 -0.320713E+02  0.969E-02    3.64       0.0  T
   2    -32.0712708 -0.129409E-05  0.561E-02    3.65       1.0  T
   3    -32.0712708  0.888556E-07  0.849E-03    3.65       2.3  T
   4    -32.0712711 -0.303051E-06  0.170E-03    3.65      11.6  T
   5    -32.0712711 -0.307386E-08  0.110E-03    3.65      17.8  T
   6    -32.0712711 -0.107238E-07  0.406E-04    3.65      48.4  T
   7    -32.0712711 -0.550322E-09  0.125E-04    3.65     156.9  T
   8    -32.0712711 -0.673879E-10  0.409E-05    3.65     479.4  T
   9    -32.0712711 -0.583356E-11  0.227E-05    3.65     864.2  T
  10    -32.0712711 -0.355271E-11  0.862E-06    3.65    2274.1  T
  11    -32.0712711 -0.440536E-12  0.292E-06    3.65    6717.4  T
     SCC iter.                  ...        0 min,  0.075 sec
     gradient                   ...        0 min,  0.002 sec
 * total energy  :   -31.5539607 Eh     change       -0.5131450E-04 Eh
   gradient norm :     0.0053999 Eh/α   predicted    -0.6291367E-04 (  22.60%)
   displ. norm   :     0.1785843 α      lambda       -0.1675015E-03
   maximum displ.:     0.1145988 α      in ANC's #3, #1, #4, ...

........................................................................
.............................. CYCLE   15 ..............................
........................................................................

 iter      E             dE          RMSdq      gap      omega  full diag
   1    -32.0754494 -0.320754E+02  0.524E-02    3.66       0.0  T
   2    -32.0754503 -0.832636E-06  0.300E-02    3.66       1.0  T
   3    -32.0754501  0.203129E-06  0.718E-03    3.66       2.7  T
   4    -32.0754504 -0.340498E-06  0.197E-03    3.66      10.0  T
   5    -32.0754504 -0.289679E-07  0.116E-03    3.66      16.9  T
   6    -32.0754504 -0.900516E-08  0.372E-04    3.66      52.8  T
   7    -32.0754505 -0.697881E-09  0.118E-04    3.66     166.8  T
   8    -32.0754505 -0.869989E-10  0.457E-05    3.66     429.1  T
   9    -32.0754505 -0.155680E-10  0.180E-05    3.66    1087.7  T
  10    -32.0754505 -0.177636E-11  0.941E-06    3.66    2083.1  T
  11    -32.0754505 -0.603961E-12  0.225E-06    3.66    8710.6  T
     SCC iter.                  ...        0 min,  0.075 sec
     gradient                   ...        0 min,  0.002 sec
 * total energy  :   -31.5540341 Eh     change       -0.7340426E-04 Eh
   gradient norm :     0.0027396 Eh/α   predicted    -0.8642204E-04 (  17.73%)
   displ. norm   :     0.1150378 α      lambda       -0.5574065E-04
   maximum displ.:     0.0752709 α      in ANC's #1, #3, #6, ...

........................................................................
.............................. CYCLE   16 ..............................
........................................................................

 iter      E             dE          RMSdq      gap      omega  full diag
   1    -32.0746754 -0.320747E+02  0.352E-02    3.65       0.0  T
   2    -32.0746755 -0.108199E-06  0.206E-02    3.65       1.0  T
   3    -32.0746754  0.148337E-06  0.301E-03    3.65       6.5  T
   4    -32.0746756 -0.183453E-06  0.852E-04    3.65      23.0  T
   5    -32.0746756 -0.780572E-08  0.442E-04    3.65      44.4  T
   6    -32.0746756 -0.659888E-09  0.118E-04    3.65     166.6  T
   7    -32.0746756 -0.292886E-10  0.370E-05    3.65     529.9  T
   8    -32.0746756 -0.238387E-10  0.128E-05    3.65    1536.9  T
   9    -32.0746756 -0.118661E-11  0.635E-06    3.65    3088.4  T
  10    -32.0746756 -0.156319E-12  0.226E-06    3.65    8685.0  T
     SCC iter.                  ...        0 min,  0.074 sec
     gradient                   ...        0 min,  0.002 sec
 * total energy  :   -31.5540760 Eh     change       -0.4188819E-04 Eh
   gradient norm :     0.0020772 Eh/α   predicted    -0.2823946E-04 ( -32.58%)
   displ. norm   :     0.1793519 α      lambda       -0.8435524E-04
   maximum displ.:     0.1018218 α      in ANC's #1, #3, #6, ...

........................................................................
.............................. CYCLE   17 ..............................
........................................................................

 iter      E             dE          RMSdq      gap      omega  full diag
   1    -32.0738533 -0.320739E+02  0.537E-02    3.64       0.0  T
   2    -32.0738537 -0.354935E-06  0.317E-02    3.64       1.0  T
   3    -32.0738533  0.432852E-06  0.499E-03    3.64       3.9  T
   4    -32.0738537 -0.495270E-06  0.167E-03    3.64      11.7  T
   5    -32.0738538 -0.483463E-07  0.653E-04    3.64      30.0  T
   6    -32.0738538 -0.116579E-08  0.259E-04    3.64      75.7  T
   7    -32.0738538  0.143103E-10  0.954E-05    3.64     205.6  T
   8    -32.0738538 -0.916458E-10  0.248E-05    3.64     792.0  T
   9    -32.0738538 -0.125127E-10  0.101E-05    3.64    1941.4  T
  10    -32.0738538 -0.305533E-12  0.347E-06    3.64    5649.4  T
  11    -32.0738538 -0.710543E-14  0.162E-06    3.64   12117.1  T
     SCC iter.                  ...        0 min,  0.075 sec
     gradient                   ...        0 min,  0.002 sec
 * total energy  :   -31.5541324 Eh     change       -0.5642915E-04 Eh
   gradient norm :     0.0030755 Eh/α   predicted    -0.4353523E-04 ( -22.85%)
   displ. norm   :     0.1649802 α      lambda       -0.6411436E-04
   maximum displ.:     0.1031368 α      in ANC's #3, #1, #11, ...

........................................................................
.............................. CYCLE   18 ..............................
........................................................................

 iter      E             dE          RMSdq      gap      omega  full diag
   1    -32.0737328 -0.320737E+02  0.488E-02    3.64       0.0  T
   2    -32.0737331 -0.302306E-06  0.287E-02    3.64       1.0  T
   3    -32.0737330  0.101795E-06  0.340E-03    3.64       5.8  T
   4    -32.0737332 -0.135305E-06  0.122E-03    3.64      16.0  T
   5    -32.0737332 -0.223580E-07  0.572E-04    3.64      34.3  T
   6    -32.0737332 -0.281659E-08  0.220E-04    3.64      89.2  T
   7    -32.0737332 -0.495461E-10  0.710E-05    3.64     276.1  T
   8    -32.0737332 -0.532694E-10  0.206E-05    3.64     950.2  T
   9    -32.0737332 -0.484590E-11  0.104E-05    3.64    1894.7  T
  10    -32.0737332 -0.412115E-12  0.381E-06    3.64    5145.1  T
  11    -32.0737332 -0.852651E-13  0.127E-06    3.64   15394.1  T
     SCC iter.                  ...        0 min,  0.075 sec
     gradient                   ...        0 min,  0.002 sec
 * total energy  :   -31.5541770 Eh     change       -0.4464718E-04 Eh
   gradient norm :     0.0035557 Eh/α   predicted    -0.3293110E-04 ( -26.24%)
   displ. norm   :     0.1964856 α      lambda       -0.6625486E-04
   maximum displ.:     0.1432157 α      in ANC's #3, #1, #11, ...

........................................................................
.............................. CYCLE   19 ..............................
........................................................................

 iter      E             dE          RMSdq      gap      omega  full diag
   1    -32.0737411 -0.320737E+02  0.562E-02    3.64       0.0  T
   2    -32.0737415 -0.410953E-06  0.330E-02    3.64       1.0  T
   3    -32.0737414  0.119479E-06  0.595E-03    3.65       3.3  T
   4    -32.0737416 -0.209862E-06  0.113E-03    3.64      17.4  T
   5    -32.0737416  0.987846E-09  0.770E-04    3.64      25.5  T
   6    -32.0737416 -0.559304E-08  0.311E-04    3.64      63.0  T
   7    -32.0737416 -0.213774E-09  0.708E-05    3.64     277.1  T
   8    -32.0737416 -0.298499E-10  0.240E-05    3.64     818.7  T
   9    -32.0737416 -0.689937E-11  0.924E-06    3.64    2122.9  T
  10    -32.0737416 -0.923706E-12  0.423E-06    3.64    4638.5  T
     SCC iter.                  ...        0 min,  0.074 sec
     gradient                   ...        0 min,  0.002 sec
 * total energy  :   -31.5542180 Eh     change       -0.4094434E-04 Eh
   gradient norm :     0.0027839 Eh/α   predicted    -0.3440865E-04 ( -15.96%)
   displ. norm   :     0.1350328 α      lambda       -0.3437043E-04
   maximum displ.:     0.1036726 α      in ANC's #3, #1, #4, ...

........................................................................
.............................. CYCLE   20 ..............................
........................................................................

 iter      E             dE          RMSdq      gap      omega  full diag
   1    -32.0739182 -0.320739E+02  0.366E-02    3.65       0.0  T
   2    -32.0739183 -0.138914E-06  0.214E-02    3.65       1.0  T
   3    -32.0739182  0.150092E-06  0.326E-03    3.65       6.0  T
   4    -32.0739183 -0.189333E-06  0.808E-04    3.65      24.3  T
   5    -32.0739184 -0.687450E-08  0.450E-04    3.65      43.6  T
   6    -32.0739184 -0.906851E-09  0.156E-04    3.65     125.9  T
   7    -32.0739184 -0.275264E-10  0.551E-05    3.65     355.9  T
   8    -32.0739184 -0.209184E-10  0.169E-05    3.65    1162.9  T
   9    -32.0739184 -0.382983E-11  0.687E-06    3.65    2854.4  T
  10    -32.0739184 -0.341061E-12  0.225E-06    3.65    8701.8  T
     SCC iter.                  ...        0 min,  0.074 sec
     gradient                   ...        0 min,  0.002 sec
 * total energy  :   -31.5542382 Eh     change       -0.2017499E-04 Eh
   gradient norm :     0.0015950 Eh/α   predicted    -0.1749890E-04 ( -13.26%)
   displ. norm   :     0.0604578 α      lambda       -0.1236186E-04
   maximum displ.:     0.0338054 α      in ANC's #4, #3, #5, ...
 * RMSD in coord.:     0.6092985 α      energy gain  -0.6629813E-02 Eh

generating ANC from model Hessian ...
Using Lindh-Hessian (1995)
 Shifting diagonal of input Hessian by   9.309071050038146E-003
 Lowest  eigenvalues of input Hessian
    0.000000    0.000000    0.000000    0.000000    0.000000    0.000000
    0.010000    0.010613    0.010862    0.011424    0.011476    0.013018
    0.016405    0.017162    0.017977    0.018707    0.021105    0.024444
 Highest eigenvalues
    1.364965    1.551732    1.578237    1.881980    1.989059    2.006859
 

........................................................................
.............................. CYCLE   21 ..............................
........................................................................

 iter      E             dE          RMSdq      gap      omega  full diag
   1    -32.0757220 -0.320757E+02  0.190E-02    3.66       0.0  T
   2    -32.0757223 -0.297282E-06  0.104E-02    3.66       1.9  T
   3    -32.0757223  0.491070E-09  0.378E-03    3.66       5.2  T
   4    -32.0757224 -0.261551E-07  0.663E-04    3.66      29.6  T
   5    -32.0757224 -0.226923E-08  0.363E-04    3.66      54.0  T
   6    -32.0757224 -0.114969E-08  0.159E-04    3.66     123.0  T
   7    -32.0757224 -0.100066E-09  0.506E-05    3.66     387.3  T
   8    -32.0757224 -0.113687E-10  0.177E-05    3.66    1109.2  T
   9    -32.0757224 -0.298428E-11  0.862E-06    3.66    2275.0  T
  10    -32.0757224 -0.198952E-12  0.340E-06    3.66    5773.8  T
     SCC iter.                  ...        0 min,  0.074 sec
     gradient                   ...        0 min,  0.002 sec
 * total energy  :   -31.5542408 Eh     change       -0.2592742E-05 Eh
   gradient norm :     0.0018586 Eh/α   predicted     0.0000000E+00 (-100.00%)
   displ. norm   :     0.0155647 α      lambda       -0.8398445E-05
   maximum displ.:     0.0072730 α      in ANC's #9, #3, #16, ...

........................................................................
.............................. CYCLE   22 ..............................
........................................................................

 iter      E             dE          RMSdq      gap      omega  full diag
   1    -32.0744849 -0.320745E+02  0.105E-02    3.65       0.0  T
   2    -32.0744850 -0.148594E-06  0.597E-03    3.65       3.3  T
   3    -32.0744850  0.144748E-08  0.275E-03    3.65       7.1  T
   4    -32.0744851 -0.176663E-07  0.655E-04    3.65      29.9  T
   5    -32.0744851 -0.175569E-08  0.405E-04    3.65      48.5  T
   6    -32.0744851 -0.146908E-08  0.173E-04    3.65     113.5  T
   7    -32.0744851 -0.649578E-10  0.470E-05    3.65     417.5  T
   8    -32.0744851 -0.153975E-10  0.145E-05    3.65    1353.8  T
   9    -32.0744851 -0.130029E-11  0.777E-06    3.65    2524.1  T
  10    -32.0744851 -0.113687E-12  0.241E-06    3.65    8151.2  T
     SCC iter.                  ...        0 min,  0.075 sec
     gradient                   ...        0 min,  0.002 sec
 * total energy  :   -31.5542462 Eh     change       -0.5483291E-05 Eh
   gradient norm :     0.0004352 Eh/α   predicted    -0.4215753E-05 ( -23.12%)
   displ. norm   :     0.0078243 α      lambda       -0.9200920E-06
   maximum displ.:     0.0043796 α      in ANC's #3, #6, #9, ...

........................................................................
.............................. CYCLE   23 ..............................
........................................................................

 iter      E             dE          RMSdq      gap      omega  full diag
   1    -32.0746477 -0.320746E+02  0.407E-03    3.65       0.0  T
   2    -32.0746477 -0.436878E-08  0.241E-03    3.65       8.1  T
   3    -32.0746477  0.446813E-08  0.629E-04    3.65      31.2  T
   4    -32.0746477 -0.541492E-08  0.185E-04    3.65     106.0  T
   5    -32.0746477 -0.168647E-09  0.853E-05    3.65     230.0  T
   6    -32.0746477 -0.711751E-10  0.443E-05    3.65     442.4  T
   7    -32.0746477 -0.719069E-11  0.695E-06    3.65    2821.6  T
   8    -32.0746477 -0.142109E-12  0.249E-06    3.65    7874.5  T
     SCC iter.                  ...        0 min,  0.073 sec
     gradient                   ...        0 min,  0.002 sec
 * total energy  :   -31.5542471 Eh     change       -0.8540347E-06 Eh
   gradient norm :     0.0001774 Eh/α   predicted    -0.4659233E-06 ( -45.44%)
   displ. norm   :     0.0115524 α      lambda       -0.4793492E-06
   maximum displ.:     0.0070854 α      in ANC's #3, #6, #9, ...

........................................................................
.............................. CYCLE   24 ..............................
........................................................................

 iter      E             dE          RMSdq      gap      omega  full diag
   1    -32.0748176 -0.320748E+02  0.342E-03    3.65       0.0  T
   2    -32.0748176 -0.136091E-08  0.203E-03    3.65       9.6  T
   3    -32.0748176  0.502368E-09  0.246E-04    3.65      79.6  T
   4    -32.0748176 -0.810104E-09  0.945E-05    3.65     207.5  T
   5    -32.0748176 -0.811866E-10  0.428E-05    3.65     458.1  T
   6    -32.0748176 -0.897415E-11  0.169E-05    3.65    1161.3  T
   7    -32.0748176 -0.277112E-12  0.515E-06    3.65    3808.5  T
   8    -32.0748176 -0.447642E-12  0.183E-06    3.65   10741.5  T
     SCC iter.                  ...        0 min,  0.073 sec
     gradient                   ...        0 min,  0.002 sec
 * total energy  :   -31.5542476 Eh     change       -0.5484226E-06 Eh
   gradient norm :     0.0001633 Eh/α   predicted    -0.2460188E-06 ( -55.14%)
   displ. norm   :     0.0205267 α      lambda       -0.5993408E-06
   maximum displ.:     0.0122559 α      in ANC's #3, #6, #5, ...

........................................................................
.............................. CYCLE   25 ..............................
........................................................................

 iter      E             dE          RMSdq      gap      omega  full diag
   1    -32.0748785 -0.320749E+02  0.490E-03    3.65       0.0  T
   2    -32.0748786 -0.235642E-08  0.291E-03    3.65       6.7  T
   3    -32.0748786 -0.115108E-11  0.239E-04    3.65      82.0  T
   4    -32.0748786 -0.226294E-09  0.130E-04    3.65     151.2  T
   5    -32.0748786 -0.279783E-09  0.404E-05    3.65     485.5  T
   6    -32.0748786 -0.596856E-11  0.195E-05    3.65    1005.7  T
   7    -32.0748786 -0.291323E-12  0.585E-06    3.65    3351.7  T
   8    -32.0748786 -0.405009E-12  0.192E-06    3.65   10215.9  T
     SCC iter.                  ...        0 min,  0.073 sec
     gradient                   ...        0 min,  0.002 sec
 * total energy  :   -31.5542484 Eh     change       -0.7123358E-06 Eh
   gradient norm :     0.0002313 Eh/α   predicted    -0.3015705E-06 ( -57.66%)
   displ. norm   :     0.0290788 α      lambda       -0.6898989E-06
   maximum displ.:     0.0174256 α      in ANC's #3, #6, #5, ...

........................................................................
.............................. CYCLE   26 ..............................
........................................................................

 iter      E             dE          RMSdq      gap      omega  full diag
   1    -32.0748172 -0.320748E+02  0.664E-03    3.65       0.0  T
   2    -32.0748172 -0.217871E-08  0.395E-03    3.65       5.0  T
   3    -32.0748172  0.957883E-09  0.405E-04    3.65      48.5  T
   4    -32.0748172 -0.180479E-08  0.120E-04    3.65     163.9  T
   5    -32.0748172  0.433431E-11  0.729E-05    3.65     268.9  T
   6    -32.0748172 -0.618385E-10  0.200E-05    3.65     982.6  T
   7    -32.0748172 -0.866862E-12  0.601E-06    3.65    3264.6  T
   8    -32.0748172 -0.234479E-12  0.205E-06    3.65    9564.5  T
     SCC iter.                  ...        0 min,  0.073 sec
     gradient                   ...        0 min,  0.002 sec
 * total energy  :   -31.5542491 Eh     change       -0.7241098E-06 Eh
   gradient norm :     0.0001690 Eh/α   predicted    -0.3480385E-06 ( -51.94%)
   displ. norm   :     0.0198494 α      lambda       -0.3247503E-06
   maximum displ.:     0.0125411 α      in ANC's #3, #6, #5, ...

........................................................................
.............................. CYCLE   27 ..............................
........................................................................

 iter      E             dE          RMSdq      gap      omega  full diag
   1    -32.0747736 -0.320748E+02  0.444E-03    3.65       0.0  T
   2    -32.0747736 -0.141047E-08  0.263E-03    3.65       7.4  T
   3    -32.0747736  0.325784E-09  0.261E-04    3.65      75.2  T
   4    -32.0747736 -0.689241E-09  0.838E-05    3.65     233.9  T
   5    -32.0747736 -0.576819E-10  0.418E-05    3.65     468.7  T
   6    -32.0747736 -0.164349E-10  0.181E-05    3.65    1083.8  T
   7    -32.0747736 -0.575540E-12  0.409E-06    3.65    4798.6  T
   8    -32.0747736 -0.497380E-13  0.195E-06    3.65   10031.6  T
     SCC iter.                  ...        0 min,  0.073 sec
     gradient                   ...        0 min,  0.002 sec
 * total energy  :   -31.5542494 Eh     change       -0.3022378E-06 Eh
   gradient norm :     0.0000831 Eh/α   predicted    -0.1660951E-06 ( -45.04%)
   displ. norm   :     0.0184308 α      lambda        0.1837076E-06
   maximum displ.:     0.0115824 α      in ANC's #3, #6, #5, ...

........................................................................
.............................. CYCLE   28 ..............................
........................................................................

 iter      E             dE          RMSdq      gap      omega  full diag
   1    -32.0747231 -0.320747E+02  0.419E-03    3.65       0.0  T
   2    -32.0747231 -0.144275E-08  0.248E-03    3.65       7.9  T
   3    -32.0747231  0.253607E-09  0.261E-04    3.65      75.0  T
   4    -32.0747231 -0.572918E-09  0.827E-05    3.65     237.2  T
   5    -32.0747231 -0.602896E-10  0.408E-05    3.65     481.0  T
   6    -32.0747231 -0.171312E-10  0.179E-05    3.65    1096.7  T
   7    -32.0747231 -0.540012E-12  0.403E-06    3.65    4861.7  T
   8    -32.0747231 -0.923706E-13  0.195E-06    3.65   10053.7  T
     SCC iter.                  ...        0 min,  0.073 sec
     gradient                   ...        0 min,  0.002 sec
 * total energy  :   -31.5542493 Eh     change        0.9650256E-07 Eh
   gradient norm :     0.0001753 Eh/α   predicted     0.9107333E-07 (  -5.63%)
   displ. norm   :     0.0084363 α      lambda       -0.2455756E-06
   maximum displ.:     0.0040078 α      in ANC's #6, #3, #5, ...

........................................................................
.............................. CYCLE   29 ..............................
........................................................................

 iter      E             dE          RMSdq      gap      omega  full diag
   1    -32.0747290 -0.320747E+02  0.299E-03    3.65       0.0  T
   2    -32.0747290 -0.317942E-08  0.168E-03    3.65      11.7  T
   3    -32.0747290 -0.112614E-09  0.322E-04    3.65      60.8  T
   4    -32.0747290 -0.611067E-12  0.107E-04    3.65     182.7  T
   5    -32.0747290 -0.173365E-09  0.262E-05    3.65     747.3  T
   6    -32.0747290 -0.534328E-11  0.151E-05    3.65    1302.3  T
   7    -32.0747290 -0.214584E-11  0.408E-06    3.65    4800.9  T
   8    -32.0747290 -0.284217E-13  0.175E-06    3.65   11219.7  T
     SCC iter.                  ...        0 min,  0.073 sec
     gradient                   ...        0 min,  0.002 sec
 * total energy  :   -31.5542495 Eh     change       -0.2131821E-06 Eh
   gradient norm :     0.0000569 Eh/α   predicted    -0.1251653E-06 ( -41.29%)
   displ. norm   :     0.0050771 α      lambda       -0.5536563E-07
   maximum displ.:     0.0022809 α      in ANC's #6, #11, #5, ...

........................................................................
.............................. CYCLE   30 ..............................
........................................................................

 iter      E             dE          RMSdq      gap      omega  full diag
   1    -32.0747508 -0.320748E+02  0.143E-03    3.65       0.0  T
   2    -32.0747508 -0.640902E-09  0.831E-04    3.65      23.6  T
   3    -32.0747508 -0.324007E-10  0.134E-04    3.65     145.8  T
   4    -32.0747508 -0.342766E-10  0.500E-05    3.65     392.1  T
   5    -32.0747508 -0.158025E-10  0.150E-05    3.65    1308.2  T
   6    -32.0747508 -0.184741E-11  0.630E-06    3.65    3112.4  T
   7    -32.0747508 -0.419220E-12  0.245E-06    3.65    7997.5  T
     SCC iter.                  ...        0 min,  0.073 sec
     gradient                   ...        0 min,  0.002 sec
 * total energy  :   -31.5542496 Eh     change       -0.6805420E-07 Eh
   gradient norm :     0.0000396 Eh/α   predicted    -0.3267303E-07 ( -51.99%)
   displ. norm   :     0.0075499 α      lambda       -0.8419667E-07
   maximum displ.:     0.0035642 α      in ANC's #2, #4, #6, ...

........................................................................
.............................. CYCLE   31 ..............................
........................................................................

 iter      E             dE          RMSdq      gap      omega  full diag
   1    -32.0747614 -0.320748E+02  0.220E-03    3.65       0.0  T
   2    -32.0747614 -0.688509E-09  0.128E-03    3.65      15.3  T
   3    -32.0747614 -0.130527E-10  0.156E-04    3.65     125.5  T
   4    -32.0747614 -0.949996E-10  0.580E-05    3.65     338.0  T
   5    -32.0747614 -0.176783E-10  0.171E-05    3.65    1145.6  T
   6    -32.0747614 -0.347455E-11  0.873E-06    3.65    2246.4  T
   7    -32.0747614 -0.568434E-12  0.313E-06    3.65    6265.4  T
     SCC iter.                  ...        0 min,  0.073 sec
     gradient                   ...        0 min,  0.002 sec
 * total energy  :   -31.5542497 Eh     change       -0.8122115E-07 Eh
   gradient norm :     0.0000476 Eh/α   predicted    -0.4288606E-07 ( -47.20%)
   displ. norm   :     0.0078803 α      lambda        0.2670036E-07
   maximum displ.:     0.0037315 α      in ANC's #2, #4, #6, ...

........................................................................
.............................. CYCLE   32 ..............................
........................................................................

 iter      E             dE          RMSdq      gap      omega  full diag
   1    -32.0747704 -0.320748E+02  0.228E-03    3.65       0.0  T
   2    -32.0747704 -0.692530E-09  0.132E-03    3.65      14.8  T
   3    -32.0747704 -0.114113E-10  0.159E-04    3.65     123.5  T
   4    -32.0747704 -0.102396E-09  0.575E-05    3.65     340.8  T
   5    -32.0747704 -0.162785E-10  0.174E-05    3.65    1128.6  T
   6    -32.0747704 -0.319744E-11  0.890E-06    3.65    2204.1  T
   7    -32.0747704 -0.653699E-12  0.313E-06    3.65    6257.5  T
     SCC iter.                  ...        0 min,  0.073 sec
     gradient                   ...        0 min,  0.002 sec
 * total energy  :   -31.5542496 Eh     change        0.1573242E-07 Eh
   gradient norm :     0.0001011 Eh/α   predicted     0.1329039E-07 ( -15.52%)
   displ. norm   :     0.0048991 α      lambda       -0.7642303E-07
   maximum displ.:     0.0027385 α      in ANC's #6, #3, #5, ...

........................................................................
.............................. CYCLE   33 ..............................
........................................................................

 iter      E             dE          RMSdq      gap      omega  full diag
   1    -32.0747615 -0.320748E+02  0.175E-03    3.65       0.0  T
   2    -32.0747615 -0.147116E-08  0.943E-04    3.65      20.8  T
   3    -32.0747615 -0.106724E-09  0.205E-04    3.65      95.5  T
   4    -32.0747615 -0.277538E-10  0.801E-05    3.65     244.9  T
   5    -32.0747615 -0.665139E-10  0.158E-05    3.65    1238.4  T
   6    -32.0747615 -0.490985E-11  0.714E-06    3.65    2744.9  T
   7    -32.0747615 -0.326850E-12  0.283E-06    3.65    6934.5  T
     SCC iter.                  ...        0 min,  0.073 sec
     gradient                   ...        0 min,  0.002 sec
 * total energy  :   -31.5542497 Eh     change       -0.7525628E-07 Eh
   gradient norm :     0.0000374 Eh/α   predicted    -0.4029114E-07 ( -46.46%)
   displ. norm   :     0.0066717 α      lambda       -0.4208056E-07
   maximum displ.:     0.0035896 α      in ANC's #3, #6, #5, ...

........................................................................
.............................. CYCLE   34 ..............................
........................................................................

 iter      E             dE          RMSdq      gap      omega  full diag
   1    -32.0747402 -0.320747E+02  0.154E-03    3.65       0.0  T
   2    -32.0747402 -0.240718E-09  0.915E-04    3.65      21.4  T
   3    -32.0747402  0.104002E-09  0.131E-04    3.65     150.0  T
   4    -32.0747402 -0.156192E-09  0.347E-05    3.65     564.6  T
   5    -32.0747402 -0.617462E-11  0.205E-05    3.65     956.2  T
   6    -32.0747402 -0.535039E-11  0.951E-06    3.65    2061.3  T
   7    -32.0747402 -0.206057E-12  0.180E-06    3.65   10896.1  T
     SCC iter.                  ...        0 min,  0.073 sec
     gradient                   ...        0 min,  0.002 sec
 * total energy  :   -31.5542498 Eh     change       -0.4638550E-07 Eh
   gradient norm :     0.0000287 Eh/α   predicted    -0.2282528E-07 ( -50.79%)
   displ. norm   :     0.0066717 α      lambda        0.0000000E+00
   maximum displ.:     0.0035896 α      in ANC's #3, #6, #5, ...

   *** GEOMETRY OPTIMIZATION CONVERGED AFTER 34 ITERATIONS ***

------------------------------------------------------------------------
 total energy gain   :        -0.0066414 Eh       -4.1675 kcal/mol
 total RMSD          :         0.6211282 a0        0.3287 Å
 total power (kW/mol):        -0.5128529 (step)   -6.6252 (real)
------------------------------------------------------------------------

 ANCopt (total)                0 d,  0 h,  0 min,  2.632 sec
 optimizer setup                ...        0 min,  0.000 sec (  0.003%)
 model hessian                  ...        0 min,  0.012 sec (  0.449%)
 ANC generation                 ...        0 min,  0.001 sec (  0.026%)
 coordinate transformation      ...        0 min,  0.000 sec (  0.012%)
 single point calculation       ...        0 min,  2.613 sec ( 99.294%)
 optimization log               ...        0 min,  0.002 sec (  0.084%)
 hessian update                 ...        0 min,  0.001 sec (  0.019%)
 rational function              ...        0 min,  0.002 sec (  0.082%)

================
 final structure:
================
26
 xtb: 6.7.0 (08769fc)
P            1.67403111823589       -0.30066999311023       -2.93465712146174
C            0.10640260972747        0.46897622616150       -3.58962253933456
H           -0.29483310795236       -0.13748272309806       -4.40739483861367
H           -0.61257655430685        0.46766914393484       -2.76522713388580
C            0.33097397119983        1.90290539663892       -4.05209772823574
H            0.97792002055239        1.93364092232940       -4.92588901617796
H            0.79291257127201        2.49030659434720       -3.26073741129829
H           -0.61725307146435        2.36852056971062       -4.31707835759418
C            1.13807859184851       -2.04386081018785       -2.72301434214168
C            2.14928037837172       -2.96076135584107       -2.43888342381558
C           -0.17855717387595       -2.48729404052308       -2.73190591581913
C            1.85991159427752       -4.29231739688577       -2.21649766423842
C           -0.46881357829670       -3.82243675953730       -2.50656675731515
C            0.54548105409467       -4.72917958259371       -2.25582819937431
H            3.17395193040939       -2.61552156500591       -2.38951454847207
H           -0.98974097966989       -1.79931345822811       -2.91427947356241
H            2.65710471557088       -4.99067414247853       -2.00546833097120
H           -1.49713710147167       -4.15474182659574       -2.52570456637112
H            0.31337644445897       -5.76970653098006       -2.08228553090108
C            2.60453345287710       -0.52555565061889       -4.54884322990090
H            3.05418632049068       -1.52098193169873       -4.53931486820929
H            1.89692568946046       -0.48238613137528       -5.38137527043920
C            3.69859501097987        0.52256779787227       -4.71517518214335
H            4.41646435513886        0.44986704330302       -3.90082694454913
H            3.28482455008340        1.52831652487184       -4.70743688316585
H            4.22755818798841        0.37548467958788       -5.65580072200841
 
 Bond Distances (Angstroems)
 ---------------------------
P1-C2=1.8652         P1-C9=1.8360         P1-C20=1.8767        C2-P1=1.8652         C2-H3=1.0943         C2-H4=1.0939         
C2-C5=1.5233         H3-C2=1.0943         H4-C2=1.0939         C5-C2=1.5233         C5-H6=1.0877         C5-H7=1.0884         
C5-H8=1.0891         H6-C5=1.0877         H7-C5=1.0884         H8-C5=1.0891         C9-P1=1.8360         C9-C10=1.3943        
C9-C11=1.3893        C10-C9=1.3943        C10-C12=1.3807       C10-H15=1.0824       C11-C9=1.3893        C11-C13=1.3848       
C11-H16=1.0792       C12-C10=1.3807       C12-C14=1.3857       C12-H17=1.0806       C13-C11=1.3848       C13-C14=1.3834       
C13-H18=1.0809       C14-C12=1.3857       C14-C13=1.3834       C14-H19=1.0801       H15-C10=1.0824       H16-C11=1.0792       
H17-C12=1.0806       H18-C13=1.0809       H19-C14=1.0801       C20-P1=1.8767        C20-H21=1.0923       C20-H22=1.0935       
C20-C23=1.5242       H21-C20=1.0923       H22-C20=1.0935       C23-C20=1.5242       C23-H24=1.0880       C23-H25=1.0876       
C23-H26=1.0891       H24-C23=1.0880       H25-C23=1.0876       H26-C23=1.0891       
 C  H  Rav=1.0871 sigma=0.0051  Rmin=1.0792  Rmax=1.0943    15
 C  C  Rav=1.4207 sigma=0.0596  Rmin=1.3807  Rmax=1.5242     8
 P  C  Rav=1.8593 sigma=0.0171  Rmin=1.8360  Rmax=1.8767     3
 
 selected bond angles (degree)
 --------------------
C9-P1-C2=100.77                C20-P1-C2= 99.45               C20-P1-C9= 97.48               H3-C2-P1=109.99                
H4-C2-P1=106.70                H4-C2-H3=108.76                C5-C2-P1=111.79                C5-C2-H3=110.42                
C5-C2-H4=109.08                H6-C5-C2=110.99                H7-C5-C2=110.48                H7-C5-H6=108.45                
H8-C5-C2=110.36                H8-C5-H6=108.08                H8-C5-H7=108.40                C10-C9-P1=115.86               
C11-C9-P1=125.38               C11-C9-C10=118.60              C12-C10-C9=121.00              H15-C10-C9=119.09              
H15-C10-C12=119.91             
 
 selected dihedral angles (degree)
 ---------------------------------
H3-C2-P1-C9=311.44            H3-C2-P1-C20= 50.99           H4-C2-P1-C9= 69.24            H4-C2-P1-C20=168.79           
C5-C2-P1-C9=188.40            C5-C2-P1-C20=287.95           H6-C5-C2-P1= 66.98            H6-C5-C2-H3=304.18            
H6-C5-C2-H4=184.72            H7-C5-C2-P1=306.64            H7-C5-C2-H3=183.85            H7-C5-C2-H4= 64.39            
H8-C5-C2-P1=186.77            H8-C5-C2-H3= 63.98            H8-C5-C2-H4=304.52            C10-C9-P1-C2=170.15           
C10-C9-P1-C20= 68.99          C11-C9-P1-C2=345.44           C11-C9-P1-C20=244.28          C12-C10-C9-P1=177.88          
C12-C10-C9-C11=  2.25         H15-C10-C9-P1=358.13          H15-C10-C9-C11=182.51         
           -------------------------------------------------
          |                Final Singlepoint                |
           -------------------------------------------------

          ...................................................
          :                      SETUP                      :
          :.................................................:
          :  # basis functions                  65          :
          :  # atomic orbitals                  64          :
          :  # shells                           38          :
          :  # electrons                        60          :
          :  max. iterations                  5000          :
          :  Hamiltonian                  GFN2-xTB          :
          :  restarted?                      false          :
          :  GBSA solvation                  false          :
          :  PC potential                    false          :
          :  electronic temp.          300.0000000     K    :
          :  accuracy                    0.0100000          :
          :  -> integral cutoff          0.4500000E+02      :
          :  -> integral neglect         0.1000000E-09      :
          :  -> SCF convergence          0.1000000E-07 Eh   :
          :  -> wf. convergence          0.1000000E-05 e    :
          :  Broyden damping             0.4000000          :
          :  net charge                          0          :
          :  unpaired electrons                  0          :
          ...................................................

 iter      E             dE          RMSdq      gap      omega  full diag
   1    -32.0747402 -0.320747E+02  0.730E-07    3.65       0.0  T
   2    -32.0747402  0.710543E-14  0.362E-07    3.65   54218.0  T
   3    -32.0747402 -0.355271E-13  0.202E-07    3.65   96951.4  T

   *** convergence criteria satisfied after 3 iterations ***

         #    Occupation            Energy/Eh            Energy/eV
      -------------------------------------------------------------
         1        2.0000           -0.6583607             -17.9149
       ...           ...                  ...                  ...
        24        2.0000           -0.4381323             -11.9222
        25        2.0000           -0.4239566             -11.5364
        26        2.0000           -0.4145740             -11.2811
        27        2.0000           -0.4075522             -11.0901
        28        2.0000           -0.4027053             -10.9582
        29        2.0000           -0.3997769             -10.8785
        30        2.0000           -0.3644170              -9.9163 (HOMO)
        31                         -0.2301773              -6.2634 (LUMO)
        32                         -0.2216018              -6.0301
        33                         -0.1591458              -4.3306
        34                         -0.1503247              -4.0905
        35                         -0.0941960              -2.5632
       ...                                ...                  ...
        64                          0.7903344              21.5061
      -------------------------------------------------------------
                  HL-Gap            0.1342398 Eh            3.6529 eV
             Fermi-level           -0.2972971 Eh           -8.0899 eV

 SCC (total)                   0 d,  0 h,  0 min,  0.074 sec
 SCC setup                      ...        0 min,  0.000 sec (  0.073%)
 Dispersion                     ...        0 min,  0.000 sec (  0.085%)
 classical contributions        ...        0 min,  0.000 sec (  0.012%)
 integral evaluation            ...        0 min,  0.001 sec (  0.928%)
 iterations                     ...        0 min,  0.071 sec ( 96.483%)
 molecular gradient             ...        0 min,  0.002 sec (  2.307%)
 printout                       ...        0 min,  0.000 sec (  0.089%)

         :::::::::::::::::::::::::::::::::::::::::::::::::::::
         ::                     SUMMARY                     ::
         :::::::::::::::::::::::::::::::::::::::::::::::::::::
         :: total energy             -31.554249755941 Eh    ::
         :: gradient norm              0.000028703942 Eh/a0 ::
         :: HOMO-LUMO gap              3.652850468264 eV    ::
         ::.................................................::
         :: SCC energy               -32.074656313308 Eh    ::
         :: -> isotropic ES            0.004282043553 Eh    ::
         :: -> anisotropic ES          0.005990022136 Eh    ::
         :: -> anisotropic XC          0.021284955322 Eh    ::
         :: -> dispersion             -0.023404418568 Eh    ::
         :: repulsion energy           0.520406557367 Eh    ::
         :: add. restraining           0.000000000000 Eh    ::
         :: total charge               0.000000000000 e     ::
         :::::::::::::::::::::::::::::::::::::::::::::::::::::

           ------------------------------------------------- 
          |                Numerical Hessian                |
           ------------------------------------------------- 
step length          :   0.00500
SCC accuracy         :   0.30000
Hessian scale factor :   1.00000
frozen atoms in %    :   0.00000    0
RMS gradient         :   0.00003
estimated CPU  time      1.13 min
estimated wall time      0.14 min

writing file <hessian>.

 projected vibrational frequencies (cm⁻¹)
eigval :       -0.00    -0.00    -0.00    -0.00    -0.00     0.00
eigval :       35.47    69.19    81.80   120.93   136.29   179.40
eigval :      211.03   222.79   246.22   272.97   277.27   319.28
eigval :      363.42   417.67   474.09   585.92   648.68   663.91
eigval :      684.45   705.23   735.41   743.35   796.02   872.20
eigval :      896.31   926.06   931.61   968.77   972.90  1009.27
eigval :     1014.75  1019.39  1070.19  1073.27  1085.80  1115.28
eigval :     1123.06  1181.71  1203.36  1224.37  1231.01  1251.07
eigval :     1256.82  1281.80  1317.51  1409.10  1411.19  1421.56
eigval :     1443.40  1453.00  1461.33  1494.05  1498.37  1503.12
eigval :     1509.45  1577.66  1589.24  2923.71  2937.22  2944.53
eigval :     2961.80  3012.11  3013.04  3025.68  3028.57  3035.11
eigval :     3038.15  3050.92  3068.50  3074.30  3087.23  3094.94
           -------------------------------------------------
          |                Property Printout                |
           -------------------------------------------------

    * Orbital Energies and Occupations

         #    Occupation            Energy/Eh            Energy/eV
      -------------------------------------------------------------
         1        2.0000           -0.6583607             -17.9149
       ...           ...                  ...                  ...
        18        2.0000           -0.4771208             -12.9831
        19        2.0000           -0.4762949             -12.9606
        20        2.0000           -0.4636400             -12.6163
        21        2.0000           -0.4604398             -12.5292
        22        2.0000           -0.4528448             -12.3225
        23        2.0000           -0.4461689             -12.1409
        24        2.0000           -0.4381323             -11.9222
        25        2.0000           -0.4239566             -11.5364
        26        2.0000           -0.4145740             -11.2811
        27        2.0000           -0.4075522             -11.0901
        28        2.0000           -0.4027053             -10.9582
        29        2.0000           -0.3997769             -10.8785
        30        2.0000           -0.3644170              -9.9163 (HOMO)
        31                         -0.2301773              -6.2634 (LUMO)
        32                         -0.2216018              -6.0301
        33                         -0.1591458              -4.3306
        34                         -0.1503247              -4.0905
        35                         -0.0941960              -2.5632
        36                          0.0041867               0.1139
        37                          0.0596559               1.6233
        38                          0.0905127               2.4630
        39                          0.1082328               2.9452
        40                          0.1183077               3.2193
        41                          0.1398531               3.8056
       ...                                ...                  ...
        64                          0.7903344              21.5061
      -------------------------------------------------------------
                  HL-Gap            0.1342398 Eh            3.6529 eV
             Fermi-level           -0.2972971 Eh           -8.0899 eV

     #   Z          covCN         q      C6AA      α(0)
     1  15 P        3.045    -0.104   164.945    23.072
     2   6 C        3.748    -0.046    21.472     6.609
     3   1 H        0.925     0.043     2.410     2.428
     4   1 H        0.926     0.041     2.439     2.442
     5   6 C        3.813    -0.097    22.329     6.726
     6   1 H        0.925     0.038     2.476     2.461
     7   1 H        0.925     0.041     2.433     2.439
     8   1 H        0.925     0.032     2.557     2.501
     9   6 C        2.915     0.005    27.911     8.663
    10   6 C        3.028    -0.031    28.747     8.795
    11   6 C        2.958    -0.034    28.836     8.808
    12   6 C        2.918    -0.030    28.749     8.793
    13   6 C        2.920    -0.030    28.756     8.794
    14   6 C        2.920    -0.031    28.767     8.795
    15   1 H        0.925     0.035     2.518     2.482
    16   1 H        0.926     0.033     2.551     2.498
    17   1 H        0.926     0.029     2.596     2.520
    18   1 H        0.926     0.029     2.608     2.525
    19   1 H        0.926     0.029     2.602     2.522
    20   6 C        3.747    -0.048    21.498     6.613
    21   1 H        0.925     0.042     2.423     2.434
    22   1 H        0.925     0.042     2.422     2.434
    23   6 C        3.810    -0.098    22.367     6.732
    24   1 H        0.925     0.041     2.440     2.443
    25   1 H        0.925     0.039     2.463     2.454
    26   1 H        0.925     0.031     2.570     2.507

 Mol. C6AA /au·bohr⁶  :       7598.995669
 Mol. C8AA /au·bohr⁸  :     202553.765681
 Mol. α(0) /au        :        139.488192


Wiberg/Mayer (AO) data.
largest (>0.10) Wiberg bond orders for each atom

 ---------------------------------------------------------------------------
     #   Z sym  total        # sym  WBO       # sym  WBO       # sym  WBO
 ---------------------------------------------------------------------------
     1  15 P    3.361 --     2 C    1.030     9 C    1.019    20 C    1.009
     2   6 C    3.995 --     1 P    1.030     5 C    1.015     4 H    0.956
                             3 H    0.952
     3   1 H    0.998 --     2 C    0.952
     4   1 H    0.998 --     2 C    0.956
     5   6 C    3.996 --     2 C    1.015     7 H    0.984     8 H    0.984
                             6 H    0.983
     6   1 H    0.998 --     5 C    0.983
     7   1 H    0.998 --     5 C    0.984
     8   1 H    0.999 --     5 C    0.984
     9   6 C    3.981 --    11 C    1.404    10 C    1.389     1 P    1.019
                            14 C    0.106
    10   6 C    3.992 --    12 C    1.457     9 C    1.389    15 H    0.961
                            13 C    0.110
    11   6 C    3.991 --    13 C    1.439     9 C    1.404    16 H    0.964
                            12 C    0.107
    12   6 C    3.992 --    10 C    1.457    14 C    1.427    17 H    0.970
                            11 C    0.107
    13   6 C    3.992 --    14 C    1.442    11 C    1.439    18 H    0.970
                            10 C    0.110
    14   6 C    3.991 --    13 C    1.442    12 C    1.427    19 H    0.971
                             9 C    0.106
    15   1 H    0.999 --    10 C    0.961
    16   1 H    0.999 --    11 C    0.964
    17   1 H    0.999 --    12 C    0.970
    18   1 H    0.999 --    13 C    0.970
    19   1 H    0.998 --    14 C    0.971
    20   6 C    3.996 --    23 C    1.018     1 P    1.009    21 H    0.958
                            22 H    0.955
    21   1 H    0.998 --    20 C    0.958
    22   1 H    0.998 --    20 C    0.955
    23   6 C    3.995 --    20 C    1.018    24 H    0.986    26 H    0.984
                            25 H    0.983
    24   1 H    0.998 --    23 C    0.986
    25   1 H    0.998 --    23 C    0.983
    26   1 H    0.998 --    23 C    0.984
 ---------------------------------------------------------------------------

Topologies differ in total number of bonds
Writing topology from bond orders to xtbtopo.mol

molecular dipole:
                 x           y           z       tot (Debye)
 q only:       -0.057       0.083      -0.295
   full:       -0.241      -0.097      -0.570       1.593
molecular quadrupole (traceless):
                xx          xy          yy          xz          yz          zz
 q only:       -0.937      -0.033      -1.254      -0.965      -1.130       2.191
  q+dip:       -1.652      -1.309      -1.012      -0.044      -0.081       2.665
   full:       -2.907      -1.281      -1.568      -0.955      -0.052       4.475

           -------------------------------------------------
          |                Geometry Summary                 |
           -------------------------------------------------

      molecular mass/u    :      166.2002322
   center of mass at/Å    :        1.2897326      -1.4263667      -3.1817128
  moments of inertia/u·Å² :        0.2859733E+03   0.8607299E+03   0.1071610E+04
rotational constants/cm⁻¹ :        0.5894828E-01   0.1958528E-01   0.1573112E-01

 * 24 selected distances

     #   Z          #   Z                                           value/Å
     1  15 P        2   6 C                                       1.8651528 (max)
     2   6 C        3   1 H                                       1.0943191
     2   6 C        4   1 H                                       1.0938742
     2   6 C        5   6 C                                       1.5233085
     5   6 C        6   1 H                                       1.0876559
     5   6 C        7   1 H                                       1.0884295
     5   6 C        8   1 H                                       1.0891037
     9   6 C       10   6 C                                       1.3942620
     9   6 C       11   6 C                                       1.3893316
    10   6 C       12   6 C                                       1.3806635
    11   6 C       13   6 C                                       1.3847862
    12   6 C       14   6 C                                       1.3856852
    13   6 C       14   6 C                                       1.3834183
    10   6 C       15   1 H                                       1.0823954
    11   6 C       16   1 H                                       1.0791649 (min)
    12   6 C       17   1 H                                       1.0806260
    13   6 C       18   1 H                                       1.0808526
    14   6 C       19   1 H                                       1.0801325
    20   6 C       21   1 H                                       1.0923151
    20   6 C       22   1 H                                       1.0934725
    20   6 C       23   6 C                                       1.5242048
    23   6 C       24   1 H                                       1.0880189
    23   6 C       25   1 H                                       1.0875645
    23   6 C       26   1 H                                       1.0891337

 * 3 distinct bonds (by element types)

   Z      Z             #   av. dist./Å        max./Å        min./Å
   1 H    6 C          15     1.0871372     1.0943191     1.0791649
   6 C    6 C           8     1.4207075     1.5242048     1.3806635
   6 C   15 P           1     1.8651528     1.8651528     1.8651528

           -------------------------------------------------
          |               Frequency Printout                |
           -------------------------------------------------
 projected vibrational frequencies (cm⁻¹)
eigval :       -0.00    -0.00    -0.00    -0.00    -0.00     0.00
eigval :       35.47    69.19    81.80   120.93   136.29   179.40
eigval :      211.03   222.79   246.22   272.97   277.27   319.28
eigval :      363.42   417.67   474.09   585.92   648.68   663.91
eigval :      684.45   705.23   735.41   743.35   796.02   872.20
eigval :      896.31   926.06   931.61   968.77   972.90  1009.27
eigval :     1014.75  1019.39  1070.19  1073.27  1085.80  1115.28
eigval :     1123.06  1181.71  1203.36  1224.37  1231.01  1251.07
eigval :     1256.82  1281.80  1317.51  1409.10  1411.19  1421.56
eigval :     1443.40  1453.00  1461.33  1494.05  1498.37  1503.12
eigval :     1509.45  1577.66  1589.24  2923.71  2937.22  2944.53
eigval :     2961.80  3012.11  3013.04  3025.68  3028.57  3035.11
eigval :     3038.15  3050.92  3068.50  3074.30  3087.23  3094.94
 reduced masses (amu)
   1: 12.01   2: 11.85   3: 13.80   4: 12.02   5: 11.79   6: 14.64   7:  9.62   8:  8.97
   9: 11.60  10:  7.36  11: 10.07  12:  3.38  13:  7.87  14:  7.89  15: 11.40  16:  9.60
  17: 10.45  18: 11.73  19:  8.88  20: 17.10  21: 14.70  22: 11.18  23: 12.50  24: 11.77
  25: 13.26  26: 16.12  27:  3.17  28:  4.89  29:  4.28  30:  3.31  31:  3.59  32:  4.09
  33:  2.99  34: 10.59  35:  2.89  36:  3.51  37:  4.07  38:  3.39  39:  9.45  40:  9.59
  41:  8.35  42:  8.46  43:  4.43  44:  1.31  45:  1.98  46:  3.56  47:  3.42  48:  4.27
  49:  4.02  50:  3.32  51: 11.93  52:  2.99  53:  2.88  54:  8.59  55:  2.61  56:  3.85
  57:  5.80  58:  1.53  59:  1.55  60:  1.54  61:  1.55  62: 11.43  63: 11.44  64:  1.82
  65:  1.78  66:  1.69  67:  1.67  68:  1.86  69:  1.81  70:  1.84  71:  1.90  72:  1.45
  73:  1.44  74:  1.80  75:  1.76  76:  1.83  77:  1.88  78:  1.86
 IR intensities (km·mol⁻¹)
   1:  0.22   2:  0.05   3:  0.03   4:  0.09   5:  0.08   6:  0.08   7:  0.07   8:  0.04
   9:  0.34  10:  0.38  11:  0.21  12:  0.18  13:  0.01  14:  0.04  15:  0.07  16:  0.47
  17:  0.47  18:  0.31  19:  0.02  20:  1.90  21:  5.71  22:  0.07  23:  4.99  24: 10.97
  25:  1.07  26: 33.72  27: 18.42  28: 17.18  29: 20.38  30:  0.27  31:  0.03  32:  0.07
  33:  0.00  34:  2.33  35:  1.27  36:  1.81  37:  1.97  38:  7.11  39:  2.75  40:  2.08
  41:  0.06  42:  1.08  43:  0.12  44:  0.02  45:  0.74  46:  1.51  47:  3.34  48:  6.55
  49:  6.43  50:  0.29  51:  0.38  52:  1.17  53:  3.49  54:  0.78  55:  0.28  56:  1.13
  57:  0.13  58:  0.49  59:  4.24  60:  1.75  61:  1.56  62:  0.45  63:  5.43  64: 17.52
  65: 20.49  66: 19.44  67: 11.22  68: 64.71  69: 40.28  70: 29.84  71: 27.09  72: 16.60
  73: 26.02  74: 16.65  75:  5.75  76: 48.11  77: 76.68  78: 26.78
 Raman intensities (Ä⁴*amu⁻¹)
   1:  0.00   2:  0.00   3:  0.00   4:  0.00   5:  0.00   6:  0.00   7:  0.00   8:  0.00
   9:  0.00  10:  0.00  11:  0.00  12:  0.00  13:  0.00  14:  0.00  15:  0.00  16:  0.00
  17:  0.00  18:  0.00  19:  0.00  20:  0.00  21:  0.00  22:  0.00  23:  0.00  24:  0.00
  25:  0.00  26:  0.00  27:  0.00  28:  0.00  29:  0.00  30:  0.00  31:  0.00  32:  0.00
  33:  0.00  34:  0.00  35:  0.00  36:  0.00  37:  0.00  38:  0.00  39:  0.00  40:  0.00
  41:  0.00  42:  0.00  43:  0.00  44:  0.00  45:  0.00  46:  0.00  47:  0.00  48:  0.00
  49:  0.00  50:  0.00  51:  0.00  52:  0.00  53:  0.00  54:  0.00  55:  0.00  56:  0.00
  57:  0.00  58:  0.00  59:  0.00  60:  0.00  61:  0.00  62:  0.00  63:  0.00  64:  0.00
  65:  0.00  66:  0.00  67:  0.00  68:  0.00  69:  0.00  70:  0.00  71:  0.00  72:  0.00
  73:  0.00  74:  0.00  75:  0.00  76:  0.00  77:  0.00  78:  0.00
 output can be read by thermo (or use thermo option).
 writing <g98.out> molden fake output.
 recommended (thermochemical) frequency scaling factor: 1.0
           -------------------------------------------------
          |             Thermodynamic Functions             |
           -------------------------------------------------

Refinement of some symmetry elements was terminated before convergence was reached.
Some symmetry elements may remain unidentified.
Molecule has no symmetry elements
It seems to be the C1 point group
c1  symmetry found (for desy threshold:  0.10E+00) used in thermo

          ...................................................
          :                      SETUP                      :
          :.................................................:
          :  # frequencies                          72      :
          :  # imaginary freq.                       0      :
          :  linear?                             false      :
          :  only rotor calc.                    false      :
          :  symmetry                               c1      :
          :  rotational number                       1      :
          :  scaling factor                  1.0000000      :
          :  rotor cutoff                   50.0000000 cm⁻¹ :
          :  imag. cutoff                  -20.0000000 cm⁻¹ :
          :.................................................:

    mode    ω/cm⁻¹     T·S(HO)/kcal·mol⁻¹    T·S(FR)/kcal·mol⁻¹   T·S(vib)
   ------------------------------------------------------------------------
       1     35.47    -1.63896 ( 20.21%)    -1.15805 ( 79.79%)    -1.25526
       2     69.19    -1.24512 ( 78.58%)    -0.96021 ( 21.42%)    -1.18408
       3     81.80    -1.14707 ( 87.75%)    -0.91065 ( 12.25%)    -1.11811
       4    120.93    -0.91994 ( 97.16%)    -0.79486 (  2.84%)    -0.91639
       5    136.29    -0.85132 ( 98.22%)    -0.75945 (  1.78%)    -0.84969
       6    179.40    -0.69608 ( 99.40%)    -0.67804 (  0.60%)    -0.69597
       7    211.03    -0.60666 ( 99.69%)    -0.62994 (  0.31%)    -0.60674
       8    222.79    -0.57730 ( 99.75%)    -0.61387 (  0.25%)    -0.57739
       9    246.22    -0.52399 ( 99.83%)    -0.58425 (  0.17%)    -0.52409
      10    272.97    -0.47027 ( 99.89%)    -0.55370 (  0.11%)    -0.47037
      11    277.27    -0.46227 ( 99.89%)    -0.54907 (  0.11%)    -0.46236
   ------------------------------------------------------------------------

   temp. (K)  partition function   enthalpy   heat capacity  entropy
                                   cal/mol     cal/K/mol   cal/K/mol   J/K/mol
 298.15  VIB  0.109E+05             6134.322     39.680     37.438
         ROT  0.124E+07              888.752      2.981     30.864
         INT  0.135E+11             7023.074     42.660     68.302
         TR   0.207E+28             1481.254      4.968     41.214
         TOT                        8504.3283    47.6286   109.5157   458.2136

       T/K    H(0)-H(T)+PV         H(T)/Eh          T*S/Eh         G(T)/Eh
   ------------------------------------------------------------------------
    298.15    0.135525E-01    0.232449E+00    0.520344E-01    0.180415E+00
   ------------------------------------------------------------------------

         :::::::::::::::::::::::::::::::::::::::::::::::::::::
         ::                  THERMODYNAMIC                  ::
         :::::::::::::::::::::::::::::::::::::::::::::::::::::
         :: total free energy         -31.373834833547 Eh   ::
         ::.................................................::
         :: total energy              -31.554249755941 Eh   ::
         :: zero point energy           0.218896848138 Eh   ::
         :: G(RRHO) w/o ZPVE           -0.038481925745 Eh   ::
         :: G(RRHO) contrib.            0.180414922393 Eh   ::
         :::::::::::::::::::::::::::::::::::::::::::::::::::::

optimized geometry written to: xtbopt.xyz


           -------------------------------------------------
          | TOTAL ENERGY              -31.554249755941 Eh   |
          | TOTAL ENTHALPY            -31.321800397966 Eh   |
          | TOTAL FREE ENERGY         -31.373834833547 Eh   |
          | GRADIENT NORM               0.000028704383 Eh/α |
          | HOMO-LUMO GAP               3.652850474357 eV   |
           -------------------------------------------------

------------------------------------------------------------------------
 * finished run on 2025/07/14 at 11:27:44.498     
------------------------------------------------------------------------
 total:
 * wall-time:     0 d,  0 h,  0 min,  6.147 sec
 *  cpu-time:     0 d,  0 h,  1 min,  0.244 sec
 * ratio c/w:     9.801 speedup
 SCF:
 * wall-time:     0 d,  0 h,  0 min,  0.087 sec
 *  cpu-time:     0 d,  0 h,  0 min,  1.043 sec
 * ratio c/w:    11.973 speedup
 ANC optimizer:
 * wall-time:     0 d,  0 h,  0 min,  2.707 sec
 *  cpu-time:     0 d,  0 h,  0 min, 32.363 sec
 * ratio c/w:    11.957 speedup
 analytical hessian:
 * wall-time:     0 d,  0 h,  0 min,  3.344 sec
 *  cpu-time:     0 d,  0 h,  0 min, 26.739 sec
 * ratio c/w:     7.997 speedup

