      -----------------------------------------------------------      
     |                   =====================                   |     
     |                           x T B                           |     
     |                   =====================                   |     
     |                         S. Grimme                         |     
     |          Mulliken Center for Theoretical Chemistry        |     
     |                    University of Bonn                     |     
      -----------------------------------------------------------      

   * xtb version 6.7.0 (08769fc) compiled by 'albert@albert-system' on 2024-03-04

   xtb is free software: you can redistribute it and/or modify it under
   the terms of the GNU Lesser General Public License as published by
   the Free Software Foundation, either version 3 of the License, or
   (at your option) any later version.
   
   xtb is distributed in the hope that it will be useful,
   but WITHOUT ANY WARRANTY; without even the implied warranty of
   MERCHANTABILITY or FITNESS FOR A PARTICULAR PURPOSE.  See the
   GNU Lesser General Public License for more details.
   
   Cite this work as:
   * C. Bannwarth, E. Caldeweyher, S. Ehlert, A. Hansen, P. Pracht,
     J. Seibert, S. Spicher, S. Grimme, WIREs Comput. Mol. Sci., 2020, 11,
     e01493. DOI: 10.1002/wcms.1493
   
   for GFN2-xTB:
   * C. Bannwarth, S. Ehlert and S. Grimme., J. Chem. Theory Comput., 2019,
     15, 1652-1671. DOI: 10.1021/acs.jctc.8b01176
   for GFN1-xTB:
   * S. Grimme, C. Bannwarth, P. Shushkov, J. Chem. Theory Comput., 2017,
     13, 1989-2009. DOI: 10.1021/acs.jctc.7b00118
   for GFN0-xTB:
   * P. Pracht, E. Caldeweyher, S. Ehlert, S. Grimme, ChemRxiv, 2019, preprint.
     DOI: 10.26434/chemrxiv.8326202.v1
   for GFN-FF:
   * S. Spicher and S. Grimme, Angew. Chem. Int. Ed., 2020, 59, 15665-15673.
     DOI: 10.1002/anie.202004239
   
   for ALPB and GBSA implicit solvation:
   * S. Ehlert, M. Stahn, S. Spicher, S. Grimme, J. Chem. Theory Comput.,
     2021, 17, 4250-4261. DOI: 10.1021/acs.jctc.1c00471
   
   for ddCOSMO and CPCM-X implicit solvation:
   * M. Stahn, S. Ehlert, S. Grimme, J. Phys. Chem. A,
     2023, XX, XXXX-XXXX. DOI: 10.1021/acs.jpca.3c04382
   
   for DFT-D4:
   * E. Caldeweyher, C. Bannwarth and S. Grimme, J. Chem. Phys., 2017,
     147, 034112. DOI: 10.1063/1.4993215
   * E. Caldeweyher, S. Ehlert, A. Hansen, H. Neugebauer, S. Spicher,
     C. Bannwarth and S. Grimme, J. Chem. Phys., 2019, 150, 154122.
     DOI: 10.1063/1.5090222
   * E. Caldeweyher, J.-M. Mewes, S. Ehlert and S. Grimme, Phys. Chem. Chem. Phys.
     2020, 22, 8499-8512. DOI: 10.1039/D0CP00502A
   
   for sTDA-xTB:
   * S. Grimme and C. Bannwarth, J. Chem. Phys., 2016, 145, 054103.
     DOI: 10.1063/1.4959605
   
   in the mass-spec context:
   * V. Asgeirsson, C. Bauer and S. Grimme, Chem. Sci., 2017, 8, 4879.
     DOI: 10.1039/c7sc00601b
   * J. Koopman and S. Grimme, ACS Omega 2019, 4, 12, 15120-15133.
     DOI: 10.1021/acsomega.9b02011
   
   for metadynamics refer to:
   * S. Grimme, J. Chem. Theory Comput., 2019, 155, 2847-2862
     DOI: 10.1021/acs.jctc.9b00143
   
   for SPH calculations refer to:
   * S. Spicher and S. Grimme, J. Chem. Theory Comput., 2021, 17, 1701-1714
     DOI: 10.1021/acs.jctc.0c01306
   
   for ONIOM refer to:
   * C. Plett, A. Katbashev, S. Ehlert, S. Grimme, M. Bursch,
     Phys. Chem. Chem. Phys., 2023, 25, 17860-17868. DOI: 10.1039/D3CP02178E
   
   for DIPRO refer to:
   * J. Kohn, N. Gildemeister, S. Grimme, D. Fazzi, A. Hansen,
     J. Chem. Phys., 2023, just accepted.
   
   for PTB refer to:
   * S. Grimme, M. Mueller, A. Hansen, J. Chem. Phys., 2023, 158, 124111.
     DOI: 10.1063/5.0137838
   
   with help from (in alphabetical order)
   P. Atkinson, C. Bannwarth, F. Bohle, G. Brandenburg, E. Caldeweyher
   M. Checinski, S. Dohm, S. Ehlert, S. Ehrlich, I. Gerasimov, C. Hölzer
   A. Katbashev, J. Kohn, J. Koopman, C. Lavigne, S. Lehtola, F. März, M. Müller,
   F. Musil, H. Neugebauer, J. Pisarek, C. Plett, P. Pracht, F. Pultar,
   J. Seibert, P. Shushkov, S. Spicher, M. Stahn, M. Steiner, T. Strunk,
   J. Stückrath, T. Rose, and J. Unsleber
   
 * started run on 2025/07/14 at 11:26:20.947     
   ID    Z sym.   atoms
    1   15 P      1
    2    6 C      2, 5, 9-14, 20, 23
    3    1 H      3, 4, 6-8, 15-19, 21, 22, 24-26

           -------------------------------------------------
          |                Calculation Setup                |
           -------------------------------------------------

          program call               : /home/minenky/programs/xtb/xtb-dist/bin/xtb m1_00_PEt2Ph-PBE0-D3-TZ-uniMM_11.xyz --charge 0 --T --ohess extreme --cycles 5000 --acc 0.01 --iterations 5000
          coordinate file            : m1_00_PEt2Ph-PBE0-D3-TZ-uniMM_11.xyz
          omp threads                :                    12

########################################################################
[WARNING] Please study the warnings concerning your input carefully
-1- prog_main_parseArguments: Unknown option '--T' provided
########################################################################

           -------------------------------------------------
          |                 G F N 2 - x T B                 |
           -------------------------------------------------

        Reference                      10.1021/acs.jctc.8b01176
      * Hamiltonian:
        H0-scaling (s, p, d)           1.850000    2.230000    2.230000
        zeta-weighting                 0.500000
      * Dispersion:
        s8                             2.700000
        a1                             0.520000
        a2                             5.000000
        s9                             5.000000
      * Repulsion:
        kExp                           1.500000    1.000000
        rExp                           1.000000
      * Coulomb:
        alpha                          2.000000
        third order                    shell-resolved
        anisotropic                    true
        a3                             3.000000
        a5                             4.000000
        cn-shift                       1.200000
        cn-exp                         4.000000
        max-rad                        5.000000


          ...................................................
          :                      SETUP                      :
          :.................................................:
          :  # basis functions                  65          :
          :  # atomic orbitals                  64          :
          :  # shells                           38          :
          :  # electrons                        60          :
          :  max. iterations                  5000          :
          :  Hamiltonian                  GFN2-xTB          :
          :  restarted?                      false          :
          :  GBSA solvation                  false          :
          :  PC potential                    false          :
          :  electronic temp.          300.0000000     K    :
          :  accuracy                    0.0100000          :
          :  -> integral cutoff          0.4500000E+02      :
          :  -> integral neglect         0.1000000E-09      :
          :  -> SCF convergence          0.1000000E-07 Eh   :
          :  -> wf. convergence          0.1000000E-05 e    :
          :  Broyden damping             0.4000000          :
          :  net charge                          0          :
          :  unpaired electrons                  0          :
          ...................................................

 iter      E             dE          RMSdq      gap      omega  full diag
   1    -32.0136401 -0.320136E+02  0.391E+00    3.97       0.0  T
   2    -32.0587523 -0.451122E-01  0.237E+00    3.45       1.0  T
   3    -32.0581548  0.597547E-03  0.943E-01    3.17       1.0  T
   4    -32.0597026 -0.154782E-02  0.281E-01    3.19       1.0  T
   5    -32.0609402 -0.123757E-02  0.127E-01    3.24       1.0  T
   6    -32.0611838 -0.243559E-03  0.430E-02    3.23       1.0  T
   7    -32.0611970 -0.132494E-04  0.163E-02    3.24       1.2  T
   8    -32.0611975 -0.546134E-06  0.708E-03    3.24       2.8  T
   9    -32.0611980 -0.455448E-06  0.176E-03    3.24      11.1  T
  10    -32.0611980 -0.405016E-07  0.715E-04    3.24      27.4  T
  11    -32.0611980 -0.840096E-09  0.315E-04    3.24      62.3  T
  12    -32.0611980 -0.500052E-09  0.585E-05    3.24     335.2  T
  13    -32.0611980 -0.132800E-10  0.285E-05    3.24     688.2  T
  14    -32.0611980 -0.285638E-11  0.112E-05    3.24    1745.8  T
  15    -32.0611980 -0.532907E-12  0.432E-06    3.24    4543.7  T
  16    -32.0611980 -0.227374E-12  0.110E-06    3.24   17874.7  T

   *** convergence criteria satisfied after 16 iterations ***

         #    Occupation            Energy/Eh            Energy/eV
      -------------------------------------------------------------
         1        2.0000           -0.6593926             -17.9430
       ...           ...                  ...                  ...
        24        2.0000           -0.4364250             -11.8757
        25        2.0000           -0.4230535             -11.5119
        26        2.0000           -0.4208283             -11.4513
        27        2.0000           -0.4107025             -11.1758
        28        2.0000           -0.4040637             -10.9951
        29        2.0000           -0.3976181             -10.8197
        30        2.0000           -0.3550693              -9.6619 (HOMO)
        31                         -0.2361207              -6.4252 (LUMO)
        32                         -0.2240723              -6.0973
        33                         -0.1465485              -3.9878
        34                         -0.1433486              -3.9007
        35                         -0.0901940              -2.4543
       ...                                ...                  ...
        64                          0.7816654              21.2702
      -------------------------------------------------------------
                  HL-Gap            0.1189485 Eh            3.2368 eV
             Fermi-level           -0.2955950 Eh           -8.0435 eV

 SCC (total)                   0 d,  0 h,  0 min,  0.089 sec
 SCC setup                      ...        0 min,  0.000 sec (  0.198%)
 Dispersion                     ...        0 min,  0.000 sec (  0.227%)
 classical contributions        ...        0 min,  0.000 sec (  0.066%)
 integral evaluation            ...        0 min,  0.002 sec (  2.120%)
 iterations                     ...        0 min,  0.085 sec ( 95.130%)
 molecular gradient             ...        0 min,  0.002 sec (  2.150%)
 printout                       ...        0 min,  0.000 sec (  0.089%)

         :::::::::::::::::::::::::::::::::::::::::::::::::::::
         ::                     SUMMARY                     ::
         :::::::::::::::::::::::::::::::::::::::::::::::::::::
         :: total energy             -31.546389909656 Eh    ::
         :: gradient norm              0.039920321770 Eh/a0 ::
         :: HOMO-LUMO gap              3.236754454154 eV    ::
         ::.................................................::
         :: SCC energy               -32.060976851971 Eh    ::
         :: -> isotropic ES            0.004038404365 Eh    ::
         :: -> anisotropic ES          0.006164788335 Eh    ::
         :: -> anisotropic XC          0.022267668900 Eh    ::
         :: -> dispersion             -0.023872302300 Eh    ::
         :: repulsion energy           0.514586942315 Eh    ::
         :: add. restraining           0.000000000000 Eh    ::
         :: total charge              -0.000000000000 e     ::
         :::::::::::::::::::::::::::::::::::::::::::::::::::::

      ----------------------------------------------------------- 
     |                   =====================                   |
     |                        A N C O P T                        |
     |                   =====================                   |
     |               Approximate Normal Coordinate               |
     |                Rational Function Optimizer                |
      ----------------------------------------------------------- 
      ----------------------------------------------------------- 
     |                   =====================                   |
     |                        A N C O P T                        |
     |                   =====================                   |
     |               Approximate Normal Coordinate               |
     |                Rational Function Optimizer                |
      ----------------------------------------------------------- 

          ...................................................
          :                      SETUP                      :
          :.................................................:
          :   optimization level           extreme          :
          :   max. optcycles                  5000          :
          :   ANC micro-cycles                  20          :
          :   degrees of freedom                72          :
          :.................................................:
          :   RF solver                   davidson          :
          :   write xtbopt.log                true          :
          :   linear?                        false          :
          :   energy convergence         0.5000000E-07 Eh   :
          :   grad. convergence          0.5000000E-04 Eh/α :
          :   maxmium RF displ.          1.0000000          :
          :   Hlow (freq-cutoff)         0.1000000E-01      :
          :   Hmax (freq-cutoff)         5.0000000          :
          :   S6 in model hess.         20.0000000          :
          ...................................................

generating ANC from model Hessian ...
Using Lindh-Hessian (1995)
 Shifting diagonal of input Hessian by   9.121312413772963E-003
 Lowest  eigenvalues of input Hessian
    0.000000    0.000000    0.000000    0.000000    0.000000    0.000000
    0.010000    0.010113    0.010598    0.011507    0.011906    0.012780
    0.015418    0.018410    0.018688    0.019660    0.022437    0.023938
 Highest eigenvalues
    1.346863    1.534364    1.561842    1.863378    1.965431    1.985626
 

........................................................................
.............................. CYCLE    1 ..............................
........................................................................

 iter      E             dE          RMSdq      gap      omega  full diag
   1    -32.0611980 -0.320612E+02  0.457E-07    3.24       0.0  T
   2    -32.0611980 -0.142109E-13  0.278E-07    3.24   70641.3  T
   3    -32.0611980 -0.710543E-14  0.111E-07    3.24  100000.0  T
     SCC iter.                  ...        0 min,  0.074 sec
     gradient                   ...        0 min,  0.002 sec
 * total energy  :   -31.5463899 Eh     change        0.1421085E-13 Eh
   gradient norm :     0.0399203 Eh/α   predicted     0.0000000E+00 (-100.00%)
   displ. norm   :     0.2946793 α      lambda       -0.5972060E-02
   maximum displ.:     0.1464389 α      in ANC's #13, #5, #11, ...

........................................................................
.............................. CYCLE    2 ..............................
........................................................................

 iter      E             dE          RMSdq      gap      omega  full diag
   1    -32.0668765 -0.320669E+02  0.309E-01    3.47       0.0  T
   2    -32.0670226 -0.146091E-03  0.143E-01    3.53       1.0  T
   3    -32.0670371 -0.145501E-04  0.499E-02    3.56       1.0  T
   4    -32.0670352  0.193920E-05  0.248E-02    3.56       1.0  T
   5    -32.0670410 -0.579519E-05  0.696E-03    3.56       2.8  T
   6    -32.0670417 -0.660072E-06  0.307E-03    3.56       6.4  T
   7    -32.0670417 -0.249400E-07  0.918E-04    3.56      21.4  T
   8    -32.0670417 -0.535796E-08  0.378E-04    3.56      51.9  T
   9    -32.0670417 -0.197027E-08  0.123E-04    3.56     159.0  T
  10    -32.0670417 -0.109573E-09  0.585E-05    3.56     335.2  T
  11    -32.0670417 -0.163709E-10  0.230E-05    3.56     853.1  T
  12    -32.0670417 -0.280664E-11  0.715E-06    3.56    2743.8  T
  13    -32.0670417 -0.710543E-14  0.223E-06    3.56    8795.5  T
     SCC iter.                  ...        0 min,  0.076 sec
     gradient                   ...        0 min,  0.002 sec
 * total energy  :   -31.5499197 Eh     change       -0.3529772E-02 Eh
   gradient norm :     0.0140879 Eh/α   predicted    -0.3245463E-02 (  -8.05%)
   displ. norm   :     0.2768366 α      lambda       -0.1510485E-02
   maximum displ.:     0.1448006 α      in ANC's #5, #6, #11, ...

........................................................................
.............................. CYCLE    3 ..............................
........................................................................

 iter      E             dE          RMSdq      gap      omega  full diag
   1    -32.0705222 -0.320705E+02  0.124E-01    3.58       0.0  T
   2    -32.0705254 -0.317234E-05  0.769E-02    3.58       1.0  T
   3    -32.0705253  0.158062E-06  0.857E-03    3.58       2.3  T
   4    -32.0705258 -0.571352E-06  0.461E-03    3.58       4.3  T
   5    -32.0705259 -0.858859E-07  0.159E-03    3.58      12.3  T
   6    -32.0705259 -0.936011E-08  0.908E-04    3.58      21.6  T
   7    -32.0705259 -0.567988E-08  0.265E-04    3.58      74.0  T
   8    -32.0705259 -0.488043E-09  0.860E-05    3.58     228.1  T
   9    -32.0705259 -0.302123E-10  0.335E-05    3.58     585.0  T
  10    -32.0705259 -0.336797E-11  0.159E-05    3.58    1230.0  T
  11    -32.0705259 -0.125056E-11  0.669E-06    3.58    2930.1  T
  12    -32.0705259 -0.355271E-12  0.230E-06    3.58    8519.4  T
     SCC iter.                  ...        0 min,  0.075 sec
     gradient                   ...        0 min,  0.002 sec
 * total energy  :   -31.5509297 Eh     change       -0.1009997E-02 Eh
   gradient norm :     0.0063754 Eh/α   predicted    -0.8131306E-03 ( -19.49%)
   displ. norm   :     0.2475268 α      lambda       -0.5743824E-03
   maximum displ.:     0.1323868 α      in ANC's #6, #5, #1, ...

........................................................................
.............................. CYCLE    4 ..............................
........................................................................

 iter      E             dE          RMSdq      gap      omega  full diag
   1    -32.0711139 -0.320711E+02  0.700E-02    3.58       0.0  T
   2    -32.0711150 -0.102868E-05  0.448E-02    3.58       1.0  T
   3    -32.0711135  0.144743E-05  0.106E-02    3.58       1.8  T
   4    -32.0711152 -0.165874E-05  0.216E-03    3.58       9.1  T
   5    -32.0711152 -0.651116E-07  0.101E-03    3.58      19.3  T
   6    -32.0711153 -0.120638E-07  0.467E-04    3.58      42.0  T
   7    -32.0711153  0.754952E-10  0.157E-04    3.58     125.3  T
   8    -32.0711153 -0.414936E-09  0.511E-05    3.58     383.9  T
   9    -32.0711153 -0.274980E-10  0.214E-05    3.58     914.6  T
  10    -32.0711153 -0.511591E-12  0.101E-05    3.58    1949.3  T
  11    -32.0711153 -0.625278E-12  0.368E-06    3.58    5331.3  T
  12    -32.0711153 -0.781597E-13  0.129E-06    3.58   15245.4  T
     SCC iter.                  ...        0 min,  0.075 sec
     gradient                   ...        0 min,  0.002 sec
 * total energy  :   -31.5513130 Eh     change       -0.3833070E-03 Eh
   gradient norm :     0.0047337 Eh/α   predicted    -0.3047963E-03 ( -20.48%)
   displ. norm   :     0.1937335 α      lambda       -0.2221422E-03
   maximum displ.:     0.1101396 α      in ANC's #6, #1, #5, ...

........................................................................
.............................. CYCLE    5 ..............................
........................................................................

 iter      E             dE          RMSdq      gap      omega  full diag
   1    -32.0710825 -0.320711E+02  0.474E-02    3.57       0.0  T
   2    -32.0710830 -0.515917E-06  0.282E-02    3.56       1.0  T
   3    -32.0710824  0.573279E-06  0.612E-03    3.56       3.2  T
   4    -32.0710831 -0.697179E-06  0.166E-03    3.56      11.8  T
   5    -32.0710831 -0.250840E-07  0.687E-04    3.56      28.6  T
   6    -32.0710831 -0.365817E-08  0.283E-04    3.56      69.3  T
   7    -32.0710831 -0.165841E-09  0.958E-05    3.56     204.6  T
   8    -32.0710831 -0.570282E-10  0.422E-05    3.56     464.8  T
   9    -32.0710831 -0.159943E-10  0.165E-05    3.56    1190.3  T
  10    -32.0710831 -0.209610E-11  0.630E-06    3.56    3112.9  T
  11    -32.0710831 -0.255795E-12  0.269E-06    3.56    7298.9  T
     SCC iter.                  ...        0 min,  0.075 sec
     gradient                   ...        0 min,  0.002 sec
 * total energy  :   -31.5514691 Eh     change       -0.1560918E-03 Eh
   gradient norm :     0.0038906 Eh/α   predicted    -0.1152425E-03 ( -26.17%)
   displ. norm   :     0.1640112 α      lambda       -0.1263434E-03
   maximum displ.:     0.0940056 α      in ANC's #1, #6, #2, ...

........................................................................
.............................. CYCLE    6 ..............................
........................................................................

 iter      E             dE          RMSdq      gap      omega  full diag
   1    -32.0712116 -0.320712E+02  0.427E-02    3.56       0.0  T
   2    -32.0712120 -0.465382E-06  0.250E-02    3.56       1.0  T
   3    -32.0712117  0.300979E-06  0.488E-03    3.55       4.0  T
   4    -32.0712121 -0.376351E-06  0.148E-03    3.55      13.3  T
   5    -32.0712121 -0.276343E-07  0.588E-04    3.55      33.4  T
   6    -32.0712121 -0.110366E-08  0.225E-04    3.55      87.0  T
   7    -32.0712121 -0.554863E-10  0.709E-05    3.55     276.5  T
   8    -32.0712121 -0.718927E-10  0.281E-05    3.55     696.9  T
   9    -32.0712121 -0.300560E-11  0.120E-05    3.55    1628.0  T
  10    -32.0712121 -0.130740E-11  0.432E-06    3.55    4539.1  T
  11    -32.0712121 -0.923706E-13  0.227E-06    3.55    8636.7  T
     SCC iter.                  ...        0 min,  0.075 sec
     gradient                   ...        0 min,  0.002 sec
 * total energy  :   -31.5515601 Eh     change       -0.9097746E-04 Eh
   gradient norm :     0.0025329 Eh/α   predicted    -0.6487554E-04 ( -28.69%)
   displ. norm   :     0.1371997 α      lambda       -0.7891094E-04
   maximum displ.:     0.0891466 α      in ANC's #1, #2, #6, ...

........................................................................
.............................. CYCLE    7 ..............................
........................................................................

 iter      E             dE          RMSdq      gap      omega  full diag
   1    -32.0715217 -0.320715E+02  0.409E-02    3.55       0.0  T
   2    -32.0715221 -0.363935E-06  0.241E-02    3.55       1.0  T
   3    -32.0715220  0.100282E-06  0.382E-03    3.55       5.1  T
   4    -32.0715222 -0.153288E-06  0.101E-03    3.55      19.4  T
   5    -32.0715222 -0.511442E-08  0.606E-04    3.55      32.4  T
   6    -32.0715222 -0.417855E-08  0.195E-04    3.55     100.7  T
   7    -32.0715222  0.107363E-10  0.442E-05    3.55     444.1  T
   8    -32.0715222 -0.357119E-10  0.197E-05    3.55     996.6  T
   9    -32.0715222 -0.310507E-11  0.768E-06    3.55    2552.9  T
  10    -32.0715222 -0.397904E-12  0.314E-06    3.55    6236.3  T
     SCC iter.                  ...        0 min,  0.074 sec
     gradient                   ...        0 min,  0.002 sec
 * total energy  :   -31.5516211 Eh     change       -0.6109124E-04 Eh
   gradient norm :     0.0020842 Eh/α   predicted    -0.4019861E-04 ( -34.20%)
   displ. norm   :     0.1498118 α      lambda       -0.7268971E-04
   maximum displ.:     0.0972247 α      in ANC's #1, #3, #2, ...

........................................................................
.............................. CYCLE    8 ..............................
........................................................................

 iter      E             dE          RMSdq      gap      omega  full diag
   1    -32.0717916 -0.320718E+02  0.479E-02    3.55       0.0  T
   2    -32.0717919 -0.319219E-06  0.281E-02    3.56       1.0  T
   3    -32.0717918  0.284483E-07  0.328E-03    3.55       6.0  T
   4    -32.0717919 -0.793452E-07  0.931E-04    3.56      21.1  T
   5    -32.0717919 -0.171315E-08  0.430E-04    3.56      45.6  T
   6    -32.0717919 -0.189602E-08  0.206E-04    3.56      95.0  T
   7    -32.0717919 -0.148013E-09  0.275E-05    3.56     711.9  T
   8    -32.0717919 -0.120295E-10  0.180E-05    3.56    1086.9  T
   9    -32.0717919 -0.246558E-11  0.429E-06    3.56    4566.9  T
  10    -32.0717919 -0.710543E-13  0.152E-06    3.56   12871.0  T
     SCC iter.                  ...        0 min,  0.074 sec
     gradient                   ...        0 min,  0.002 sec
 * total energy  :   -31.5516828 Eh     change       -0.6162199E-04 Eh
   gradient norm :     0.0027292 Eh/α   predicted    -0.3716141E-04 ( -39.69%)
   displ. norm   :     0.2153298 α      lambda       -0.9845338E-04
   maximum displ.:     0.1346151 α      in ANC's #1, #3, #2, ...

........................................................................
.............................. CYCLE    9 ..............................
........................................................................

 iter      E             dE          RMSdq      gap      omega  full diag
   1    -32.0717786 -0.320718E+02  0.714E-02    3.56       0.0  T
   2    -32.0717791 -0.450047E-06  0.415E-02    3.56       1.0  T
   3    -32.0717791 -0.267917E-07  0.346E-03    3.56       5.7  T
   4    -32.0717792 -0.534179E-07  0.129E-03    3.56      15.3  T
   5    -32.0717792 -0.786718E-08  0.473E-04    3.56      41.4  T
   6    -32.0717792  0.619096E-10  0.249E-04    3.56      78.9  T
   7    -32.0717792 -0.862151E-09  0.458E-05    3.56     427.8  T
   8    -32.0717792 -0.174651E-10  0.204E-05    3.56     963.0  T
   9    -32.0717792 -0.234479E-11  0.741E-06    3.56    2648.0  T
  10    -32.0717792 -0.177636E-12  0.166E-06    3.56   11826.1  T
     SCC iter.                  ...        0 min,  0.074 sec
     gradient                   ...        0 min,  0.002 sec
 * total energy  :   -31.5517690 Eh     change       -0.8622835E-04 Eh
   gradient norm :     0.0034187 Eh/α   predicted    -0.5151322E-04 ( -40.26%)
   displ. norm   :     0.3273142 α      lambda       -0.1387512E-03
   maximum displ.:     0.2010436 α      in ANC's #1, #3, #2, ...

........................................................................
.............................. CYCLE   10 ..............................
........................................................................

 iter      E             dE          RMSdq      gap      omega  full diag
   1    -32.0710824 -0.320711E+02  0.111E-01    3.56       0.0  T
   2    -32.0710832 -0.822617E-06  0.644E-02    3.56       1.0  T
   3    -32.0710833 -0.139320E-06  0.394E-03    3.56       5.0  T
   4    -32.0710834 -0.248612E-07  0.155E-03    3.57      12.6  T
   5    -32.0710834 -0.201666E-07  0.680E-04    3.57      28.8  T
   6    -32.0710834  0.585878E-09  0.354E-04    3.57      55.4  T
   7    -32.0710834 -0.176656E-08  0.592E-05    3.57     331.3  T
   8    -32.0710834 -0.216929E-10  0.344E-05    3.57     570.2  T
   9    -32.0710834 -0.932943E-11  0.134E-05    3.57    1467.0  T
  10    -32.0710834 -0.419220E-12  0.298E-06    3.57    6576.0  T
  11    -32.0710834 -0.639488E-13  0.120E-06    3.57   16342.4  T
     SCC iter.                  ...        0 min,  0.074 sec
     gradient                   ...        0 min,  0.002 sec
 * total energy  :   -31.5518848 Eh     change       -0.1158103E-03 Eh
   gradient norm :     0.0037238 Eh/α   predicted    -0.7681189E-04 ( -33.67%)
   displ. norm   :     0.3895643 α      lambda       -0.1362943E-03
   maximum displ.:     0.2392616 α      in ANC's #1, #3, #2, ...

........................................................................
.............................. CYCLE   11 ..............................
........................................................................

 iter      E             dE          RMSdq      gap      omega  full diag
   1    -32.0701356 -0.320701E+02  0.133E-01    3.57       0.0  T
   2    -32.0701367 -0.110071E-05  0.776E-02    3.57       1.0  T
   3    -32.0701368 -0.915580E-07  0.504E-03    3.57       3.9  T
   4    -32.0701368 -0.421529E-07  0.278E-03    3.57       7.1  T
   5    -32.0701369 -0.139927E-06  0.938E-04    3.57      20.9  T
   6    -32.0701369 -0.323939E-08  0.334E-04    3.57      58.7  T
   7    -32.0701369 -0.481734E-09  0.913E-05    3.57     214.9  T
   8    -32.0701369 -0.146507E-09  0.380E-05    3.57     515.8  T
   9    -32.0701369 -0.224532E-11  0.140E-05    3.57    1403.6  T
  10    -32.0701369 -0.181899E-11  0.402E-06    3.57    4874.7  T
  11    -32.0701369 -0.191847E-12  0.129E-06    3.57   15186.3  T
     SCC iter.                  ...        0 min,  0.075 sec
     gradient                   ...        0 min,  0.002 sec
 * total energy  :   -31.5519848 Eh     change       -0.1000230E-03 Eh
   gradient norm :     0.0036518 Eh/α   predicted    -0.7849018E-04 ( -21.53%)
   displ. norm   :     0.2953811 α      lambda       -0.8037427E-04
   maximum displ.:     0.1811610 α      in ANC's #1, #3, #2, ...

........................................................................
.............................. CYCLE   12 ..............................
........................................................................

 iter      E             dE          RMSdq      gap      omega  full diag
   1    -32.0705422 -0.320705E+02  0.101E-01    3.58       0.0  T
   2    -32.0705429 -0.750647E-06  0.589E-02    3.58       1.0  T
   3    -32.0705427  0.261333E-06  0.623E-03    3.58       3.1  T
   4    -32.0705431 -0.397085E-06  0.231E-03    3.58       8.5  T
   5    -32.0705431 -0.637126E-07  0.917E-04    3.58      21.4  T
   6    -32.0705431 -0.822058E-08  0.440E-04    3.58      44.5  T
   7    -32.0705431 -0.699494E-09  0.942E-05    3.58     208.2  T
   8    -32.0705431 -0.102318E-09  0.427E-05    3.58     459.2  T
   9    -32.0705431 -0.925127E-11  0.161E-05    3.58    1220.0  T
  10    -32.0705431 -0.945022E-12  0.478E-06    3.58    4100.2  T
  11    -32.0705431 -0.255795E-12  0.144E-06    3.58   13629.6  T
     SCC iter.                  ...        0 min,  0.075 sec
     gradient                   ...        0 min,  0.002 sec
 * total energy  :   -31.5520404 Eh     change       -0.5559727E-04 Eh
   gradient norm :     0.0027557 Eh/α   predicted    -0.4369490E-04 ( -21.41%)
   displ. norm   :     0.1766201 α      lambda       -0.4541063E-04
   maximum displ.:     0.1039917 α      in ANC's #1, #3, #2, ...

........................................................................
.............................. CYCLE   13 ..............................
........................................................................

 iter      E             dE          RMSdq      gap      omega  full diag
   1    -32.0718594 -0.320719E+02  0.599E-02    3.58       0.0  T
   2    -32.0718597 -0.314491E-06  0.353E-02    3.58       1.0  T
   3    -32.0718593  0.386401E-06  0.575E-03    3.58       3.4  T
   4    -32.0718598 -0.485823E-06  0.143E-03    3.58      13.7  T
   5    -32.0718598 -0.959985E-08  0.726E-04    3.58      27.0  T
   6    -32.0718598 -0.578942E-08  0.320E-04    3.58      61.2  T
   7    -32.0718598 -0.393193E-09  0.786E-05    3.58     249.5  T
   8    -32.0718598 -0.262048E-10  0.290E-05    3.58     675.8  T
   9    -32.0718598 -0.649436E-11  0.106E-05    3.58    1855.0  T
  10    -32.0718598 -0.447642E-12  0.265E-06    3.58    7411.2  T
  11    -32.0718598 -0.156319E-12  0.105E-06    3.58   18700.4  T
     SCC iter.                  ...        0 min,  0.077 sec
     gradient                   ...        0 min,  0.002 sec
 * total energy  :   -31.5520729 Eh     change       -0.3243090E-04 Eh
   gradient norm :     0.0016687 Eh/α   predicted    -0.2341523E-04 ( -27.80%)
   displ. norm   :     0.3135893 α      lambda       -0.3257746E-04
   maximum displ.:     0.1750276 α      in ANC's #1, #2, #3, ...

........................................................................
.............................. CYCLE   14 ..............................
........................................................................

 iter      E             dE          RMSdq      gap      omega  full diag
   1    -32.0714664 -0.320715E+02  0.106E-01    3.58       0.0  T
   2    -32.0714672 -0.775493E-06  0.623E-02    3.58       1.0  T
   3    -32.0714663  0.844340E-06  0.788E-03    3.58       2.5  T
   4    -32.0714674 -0.108824E-05  0.230E-03    3.58       8.5  T
   5    -32.0714674 -0.407695E-07  0.109E-03    3.58      18.0  T
   6    -32.0714674 -0.767739E-08  0.455E-04    3.58      43.1  T
   7    -32.0714674 -0.395822E-09  0.970E-05    3.58     202.2  T
   8    -32.0714674 -0.143103E-09  0.353E-05    3.58     554.8  T
   9    -32.0714674 -0.945732E-11  0.176E-05    3.58    1113.9  T
  10    -32.0714674 -0.318323E-11  0.533E-06    3.58    3681.7  T
  11    -32.0714674 -0.156319E-12  0.178E-06    3.58   11040.8  T
     SCC iter.                  ...        0 min,  0.075 sec
     gradient                   ...        0 min,  0.002 sec
 * total energy  :   -31.5520997 Eh     change       -0.2683204E-04 Eh
   gradient norm :     0.0020756 Eh/α   predicted    -0.1700232E-04 ( -36.63%)
   displ. norm   :     0.0633079 α      lambda       -0.2857292E-04
   maximum displ.:     0.0341879 α      in ANC's #2, #10, #8, ...

........................................................................
.............................. CYCLE   15 ..............................
........................................................................

 iter      E             dE          RMSdq      gap      omega  full diag
   1    -32.0737374 -0.320737E+02  0.213E-02    3.59       0.0  T
   2    -32.0737375 -0.144753E-06  0.125E-02    3.59       1.6  T
   3    -32.0737375  0.465236E-07  0.245E-03    3.59       8.0  T
   4    -32.0737375 -0.715068E-07  0.674E-04    3.59      29.1  T
   5    -32.0737375 -0.254691E-08  0.405E-04    3.59      48.5  T
   6    -32.0737375 -0.560576E-09  0.162E-04    3.59     121.0  T
   7    -32.0737375 -0.200082E-09  0.415E-05    3.59     472.6  T
   8    -32.0737375 -0.778755E-11  0.173E-05    3.59    1130.5  T
   9    -32.0737375 -0.297007E-11  0.681E-06    3.59    2880.6  T
  10    -32.0737375 -0.341061E-12  0.352E-06    3.59    5575.6  T
     SCC iter.                  ...        0 min,  0.074 sec
     gradient                   ...        0 min,  0.002 sec
 * total energy  :   -31.5521135 Eh     change       -0.1383785E-04 Eh
   gradient norm :     0.0025736 Eh/α   predicted    -0.1434466E-04 (   3.66%)
   displ. norm   :     0.0956910 α      lambda       -0.2014725E-04
   maximum displ.:     0.0638160 α      in ANC's #2, #3, #1, ...

........................................................................
.............................. CYCLE   16 ..............................
........................................................................

 iter      E             dE          RMSdq      gap      omega  full diag
   1    -32.0731911 -0.320732E+02  0.343E-02    3.59       0.0  T
   2    -32.0731913 -0.124090E-06  0.199E-02    3.59       1.0  T
   3    -32.0731913 -0.267183E-08  0.200E-03    3.59       9.8  T
   4    -32.0731913 -0.175555E-07  0.660E-04    3.59      29.7  T
   5    -32.0731913 -0.195764E-08  0.279E-04    3.59      70.4  T
   6    -32.0731913 -0.602491E-09  0.150E-04    3.59     130.8  T
   7    -32.0731913 -0.202050E-09  0.261E-05    3.59     751.9  T
   8    -32.0731913 -0.102816E-10  0.925E-06    3.59    2119.2  T
   9    -32.0731913 -0.433431E-12  0.441E-06    3.59    4447.3  T
     SCC iter.                  ...        0 min,  0.074 sec
     gradient                   ...        0 min,  0.002 sec
 * total energy  :   -31.5521304 Eh     change       -0.1687092E-04 Eh
   gradient norm :     0.0016784 Eh/α   predicted    -0.1016837E-04 ( -39.73%)
   displ. norm   :     0.1173097 α      lambda       -0.2375439E-04
   maximum displ.:     0.0808511 α      in ANC's #2, #10, #6, ...

........................................................................
.............................. CYCLE   17 ..............................
........................................................................

 iter      E             dE          RMSdq      gap      omega  full diag
   1    -32.0723016 -0.320723E+02  0.398E-02    3.59       0.0  T
   2    -32.0723020 -0.406120E-06  0.227E-02    3.59       1.0  T
   3    -32.0723018  0.217283E-06  0.543E-03    3.59       3.6  T
   4    -32.0723021 -0.270170E-06  0.163E-03    3.59      12.1  T
   5    -32.0723021 -0.184632E-07  0.601E-04    3.59      32.6  T
   6    -32.0723021 -0.711849E-08  0.217E-04    3.59      90.3  T
   7    -32.0723021 -0.497238E-10  0.616E-05    3.59     318.2  T
   8    -32.0723021 -0.535891E-10  0.198E-05    3.59     990.1  T
   9    -32.0723021 -0.125766E-11  0.965E-06    3.59    2031.3  T
  10    -32.0723021 -0.490274E-12  0.267E-06    3.59    7354.0  T
     SCC iter.                  ...        0 min,  0.087 sec
     gradient                   ...        0 min,  0.002 sec
 * total energy  :   -31.5521517 Eh     change       -0.2132633E-04 Eh
   gradient norm :     0.0016500 Eh/α   predicted    -0.1195419E-04 ( -43.95%)
   displ. norm   :     0.0686352 α      lambda       -0.9719360E-05
   maximum displ.:     0.0507237 α      in ANC's #2, #10, #1, ...

........................................................................
.............................. CYCLE   18 ..............................
........................................................................

 iter      E             dE          RMSdq      gap      omega  full diag
   1    -32.0722086 -0.320722E+02  0.228E-02    3.59       0.0  T
   2    -32.0722086 -0.474615E-07  0.132E-02    3.59       1.5  T
   3    -32.0722086  0.294976E-08  0.112E-03    3.59      17.5  T
   4    -32.0722086 -0.407582E-08  0.683E-04    3.59      28.7  T
   5    -32.0722086 -0.859140E-08  0.207E-04    3.59      94.8  T
   6    -32.0722086 -0.888676E-10  0.785E-05    3.59     249.9  T
   7    -32.0722086 -0.103029E-10  0.214E-05    3.59     916.2  T
   8    -32.0722086 -0.468248E-11  0.758E-06    3.59    2587.7  T
   9    -32.0722086  0.710543E-14  0.329E-06    3.59    5956.5  T
     SCC iter.                  ...        0 min,  0.097 sec
     gradient                   ...        0 min,  0.004 sec
 * total energy  :   -31.5521636 Eh     change       -0.1183232E-04 Eh
   gradient norm :     0.0014834 Eh/α   predicted    -0.4872030E-05 ( -58.82%)
   displ. norm   :     0.0886867 α      lambda       -0.1344000E-04
   maximum displ.:     0.0626434 α      in ANC's #2, #1, #10, ...

........................................................................
.............................. CYCLE   19 ..............................
........................................................................

 iter      E             dE          RMSdq      gap      omega  full diag
   1    -32.0724350 -0.320724E+02  0.278E-02    3.59       0.0  T
   2    -32.0724350 -0.487126E-07  0.163E-02    3.59       1.2  T
   3    -32.0724350  0.172273E-07  0.155E-03    3.59      12.6  T
   4    -32.0724350 -0.321641E-07  0.466E-04    3.59      42.0  T
   5    -32.0724350 -0.566480E-09  0.235E-04    3.59      83.4  T
   6    -32.0724350 -0.467139E-09  0.813E-05    3.59     241.3  T
   7    -32.0724350 -0.275620E-10  0.317E-05    3.59     618.7  T
   8    -32.0724350 -0.124984E-10  0.918E-06    3.59    2136.4  T
   9    -32.0724350 -0.355271E-13  0.407E-06    3.59    4819.6  T
     SCC iter.                  ...        0 min,  0.154 sec
     gradient                   ...        0 min,  0.007 sec
 * total energy  :   -31.5521797 Eh     change       -0.1610353E-04 Eh
   gradient norm :     0.0007602 Eh/α   predicted    -0.6745852E-05 ( -58.11%)
   displ. norm   :     0.1145651 α      lambda       -0.1347057E-04
   maximum displ.:     0.0896493 α      in ANC's #2, #1, #3, ...

........................................................................
.............................. CYCLE   20 ..............................
........................................................................

 iter      E             dE          RMSdq      gap      omega  full diag
   1    -32.0722475 -0.320722E+02  0.374E-02    3.59       0.0  T
   2    -32.0722476 -0.575784E-07  0.220E-02    3.59       1.0  T
   3    -32.0722475  0.304109E-07  0.190E-03    3.59      10.3  T
   4    -32.0722476 -0.525039E-07  0.592E-04    3.59      33.1  T
   5    -32.0722476 -0.193594E-08  0.273E-04    3.59      71.7  T
   6    -32.0722476 -0.574232E-09  0.987E-05    3.59     198.7  T
   7    -32.0722476 -0.336797E-10  0.291E-05    3.59     673.6  T
   8    -32.0722476 -0.832046E-11  0.124E-05    3.59    1586.1  T
   9    -32.0722476 -0.130740E-11  0.433E-06    3.59    4525.2  T
  10    -32.0722476 -0.149214E-12  0.161E-06    3.59   12204.4  T
     SCC iter.                  ...        0 min,  0.116 sec
     gradient                   ...        0 min,  0.003 sec
 * total energy  :   -31.5521955 Eh     change       -0.1582152E-04 Eh
   gradient norm :     0.0009929 Eh/α   predicted    -0.6778566E-05 ( -57.16%)
   displ. norm   :     0.0969621 α      lambda       -0.1003907E-04
   maximum displ.:     0.0767491 α      in ANC's #2, #1, #3, ...
 * RMSD in coord.:     0.5510772 α      energy gain  -0.5805574E-02 Eh

generating ANC from model Hessian ...
Using Lindh-Hessian (1995)
 Shifting diagonal of input Hessian by   9.142194506315654E-003
 Lowest  eigenvalues of input Hessian
    0.000000    0.000000    0.000000    0.000000    0.000000    0.000000
    0.010000    0.010071    0.010625    0.011193    0.011789    0.012424
    0.015238    0.017737    0.018397    0.019271    0.020765    0.024135
 Highest eigenvalues
    1.363595    1.554982    1.572595    1.882339    1.988049    2.003753
 

........................................................................
.............................. CYCLE   21 ..............................
........................................................................

 iter      E             dE          RMSdq      gap      omega  full diag
   1    -32.0722981 -0.320723E+02  0.310E-02    3.59       0.0  T
   2    -32.0722981 -0.456469E-07  0.181E-02    3.59       1.1  T
   3    -32.0722981  0.113496E-07  0.136E-03    3.59      14.4  T
   4    -32.0722981 -0.271697E-07  0.512E-04    3.59      38.3  T
   5    -32.0722981 -0.197247E-08  0.184E-04    3.59     106.9  T
   6    -32.0722981 -0.119670E-09  0.846E-05    3.59     231.9  T
   7    -32.0722981 -0.431513E-10  0.208E-05    3.59     941.4  T
   8    -32.0722981 -0.265743E-11  0.936E-06    3.59    2094.1  T
   9    -32.0722981 -0.561329E-12  0.442E-06    3.59    4436.9  T
     SCC iter.                  ...        0 min,  0.077 sec
     gradient                   ...        0 min,  0.002 sec
 * total energy  :   -31.5522084 Eh     change       -0.1287991E-04 Eh
   gradient norm :     0.0010399 Eh/α   predicted     0.0000000E+00 (-100.00%)
   displ. norm   :     0.0279111 α      lambda       -0.6310803E-05
   maximum displ.:     0.0183020 α      in ANC's #1, #2, #9, ...

........................................................................
.............................. CYCLE   22 ..............................
........................................................................

 iter      E             dE          RMSdq      gap      omega  full diag
   1    -32.0726850 -0.320727E+02  0.952E-03    3.59       0.0  T
   2    -32.0726851 -0.382429E-07  0.558E-03    3.59       3.5  T
   3    -32.0726851  0.150943E-07  0.142E-03    3.59      13.8  T
   4    -32.0726851 -0.196766E-07  0.365E-04    3.59      53.7  T
   5    -32.0726851 -0.134285E-08  0.159E-04    3.59     123.3  T
   6    -32.0726851 -0.550777E-09  0.543E-05    3.59     360.9  T
   7    -32.0726851 -0.111555E-11  0.247E-05    3.59     794.9  T
   8    -32.0726851 -0.473221E-11  0.597E-06    3.59    3287.8  T
   9    -32.0726851 -0.639488E-12  0.215E-06    3.59    9136.3  T
     SCC iter.                  ...        0 min,  0.080 sec
     gradient                   ...        0 min,  0.002 sec
 * total energy  :   -31.5522157 Eh     change       -0.7296341E-05 Eh
   gradient norm :     0.0003099 Eh/α   predicted    -0.3164300E-05 ( -56.63%)
   displ. norm   :     0.0568781 α      lambda       -0.7652239E-05
   maximum displ.:     0.0370119 α      in ANC's #1, #2, #9, ...

........................................................................
.............................. CYCLE   23 ..............................
........................................................................

 iter      E             dE          RMSdq      gap      omega  full diag
   1    -32.0727817 -0.320728E+02  0.180E-02    3.59       0.0  T
   2    -32.0727817 -0.447548E-07  0.105E-02    3.59       1.9  T
   3    -32.0727817  0.818330E-08  0.139E-03    3.59      14.1  T
   4    -32.0727817 -0.158318E-07  0.365E-04    3.59      53.7  T
   5    -32.0727817 -0.695529E-09  0.188E-04    3.59     104.4  T
   6    -32.0727817 -0.617042E-09  0.782E-05    3.59     250.9  T
   7    -32.0727817 -0.324007E-11  0.219E-05    3.59     897.5  T
   8    -32.0727817 -0.771649E-11  0.666E-06    3.59    2943.7  T
   9    -32.0727817 -0.305533E-12  0.233E-06    3.59    8431.8  T
     SCC iter.                  ...        0 min,  0.077 sec
     gradient                   ...        0 min,  0.002 sec
 * total energy  :   -31.5522243 Eh     change       -0.8595056E-05 Eh
   gradient norm :     0.0006811 Eh/α   predicted    -0.3832196E-05 ( -55.41%)
   displ. norm   :     0.0651131 α      lambda       -0.5923925E-05
   maximum displ.:     0.0436230 α      in ANC's #1, #2, #9, ...

........................................................................
.............................. CYCLE   24 ..............................
........................................................................

 iter      E             dE          RMSdq      gap      omega  full diag
   1    -32.0726945 -0.320727E+02  0.209E-02    3.59       0.0  T
   2    -32.0726946 -0.408903E-07  0.121E-02    3.59       1.6  T
   3    -32.0726946 -0.305924E-08  0.102E-03    3.59      19.2  T
   4    -32.0726946 -0.165719E-08  0.457E-04    3.59      42.9  T
   5    -32.0726946 -0.345221E-08  0.129E-04    3.59     151.5  T
   6    -32.0726946 -0.144098E-10  0.671E-05    3.59     292.3  T
   7    -32.0726946 -0.374172E-10  0.155E-05    3.59    1261.9  T
   8    -32.0726946 -0.270006E-11  0.535E-06    3.59    3666.9  T
   9    -32.0726946 -0.234479E-12  0.245E-06    3.59    8000.1  T
     SCC iter.                  ...        0 min,  0.075 sec
     gradient                   ...        0 min,  0.002 sec
 * total energy  :   -31.5522310 Eh     change       -0.6781675E-05 Eh
   gradient norm :     0.0007002 Eh/α   predicted    -0.2969802E-05 ( -56.21%)
   displ. norm   :     0.0582784 α      lambda       -0.4306121E-05
   maximum displ.:     0.0412919 α      in ANC's #1, #2, #9, ...

........................................................................
.............................. CYCLE   25 ..............................
........................................................................

 iter      E             dE          RMSdq      gap      omega  full diag
   1    -32.0726813 -0.320727E+02  0.206E-02    3.59       0.0  T
   2    -32.0726813 -0.181618E-07  0.121E-02    3.59       1.6  T
   3    -32.0726813  0.703736E-09  0.795E-04    3.59      24.7  T
   4    -32.0726813 -0.561256E-08  0.360E-04    3.59      54.5  T
   5    -32.0726813 -0.105052E-08  0.144E-04    3.59     135.8  T
   6    -32.0726813 -0.147963E-09  0.590E-05    3.59     332.7  T
   7    -32.0726813 -0.157456E-10  0.162E-05    3.59    1211.8  T
   8    -32.0726813 -0.169109E-11  0.617E-06    3.59    3177.9  T
   9    -32.0726813 -0.312639E-12  0.225E-06    3.59    8725.2  T
     SCC iter.                  ...        0 min,  0.078 sec
     gradient                   ...        0 min,  0.002 sec
 * total energy  :   -31.5522360 Eh     change       -0.4927156E-05 Eh
   gradient norm :     0.0003912 Eh/α   predicted    -0.2156431E-05 ( -56.23%)
   displ. norm   :     0.0458000 α      lambda       -0.3076591E-05
   maximum displ.:     0.0346914 α      in ANC's #1, #2, #4, ...

........................................................................
.............................. CYCLE   26 ..............................
........................................................................

 iter      E             dE          RMSdq      gap      omega  full diag
   1    -32.0726027 -0.320726E+02  0.156E-02    3.59       0.0  T
   2    -32.0726027 -0.296476E-07  0.907E-03    3.59       2.2  T
   3    -32.0726027  0.978972E-09  0.963E-04    3.59      20.4  T
   4    -32.0726027 -0.438932E-08  0.367E-04    3.59      53.4  T
   5    -32.0726027 -0.189920E-08  0.116E-04    3.59     168.7  T
   6    -32.0726027 -0.126320E-09  0.576E-05    3.59     340.6  T
   7    -32.0726027 -0.163425E-10  0.196E-05    3.59    1002.6  T
   8    -32.0726027 -0.159872E-11  0.556E-06    3.59    3528.1  T
   9    -32.0726027 -0.298428E-12  0.195E-06    3.59   10033.9  T
     SCC iter.                  ...        0 min,  0.088 sec
     gradient                   ...        0 min,  0.002 sec
 * total energy  :   -31.5522397 Eh     change       -0.3773804E-05 Eh
   gradient norm :     0.0002205 Eh/α   predicted    -0.1540034E-05 ( -59.19%)
   displ. norm   :     0.0426789 α      lambda       -0.3024676E-05
   maximum displ.:     0.0324778 α      in ANC's #1, #2, #4, ...

........................................................................
.............................. CYCLE   27 ..............................
........................................................................

 iter      E             dE          RMSdq      gap      omega  full diag
   1    -32.0725735 -0.320726E+02  0.147E-02    3.59       0.0  T
   2    -32.0725736 -0.130889E-07  0.854E-03    3.59       2.3  T
   3    -32.0725736 -0.602498E-09  0.626E-04    3.59      31.3  T
   4    -32.0725736 -0.221774E-08  0.286E-04    3.59      68.5  T
   5    -32.0725736 -0.580926E-09  0.105E-04    3.59     186.3  T
   6    -32.0725736 -0.813216E-10  0.499E-05    3.59     392.9  T
   7    -32.0725736 -0.864731E-11  0.106E-05    3.59    1854.7  T
   8    -32.0725736 -0.476064E-12  0.402E-06    3.59    4883.6  T
   9    -32.0725736 -0.710543E-13  0.140E-06    3.59   13967.2  T
     SCC iter.                  ...        0 min,  0.076 sec
     gradient                   ...        0 min,  0.002 sec
 * total energy  :   -31.5522438 Eh     change       -0.4022046E-05 Eh
   gradient norm :     0.0003804 Eh/α   predicted    -0.1514173E-05 ( -62.35%)
   displ. norm   :     0.0578118 α      lambda       -0.4243509E-05
   maximum displ.:     0.0427384 α      in ANC's #1, #2, #10, ...

........................................................................
.............................. CYCLE   28 ..............................
........................................................................

 iter      E             dE          RMSdq      gap      omega  full diag
   1    -32.0725681 -0.320726E+02  0.185E-02    3.60       0.0  T
   2    -32.0725681 -0.190807E-07  0.108E-02    3.60       1.8  T
   3    -32.0725681 -0.194268E-08  0.691E-04    3.60      28.4  T
   4    -32.0725681 -0.255679E-08  0.371E-04    3.60      52.9  T
   5    -32.0725681 -0.158153E-08  0.124E-04    3.60     158.5  T
   6    -32.0725681 -0.418083E-10  0.497E-05    3.60     394.8  T
   7    -32.0725681 -0.104023E-10  0.145E-05    3.60    1355.9  T
   8    -32.0725681 -0.199663E-11  0.455E-06    3.60    4309.5  T
   9    -32.0725681 -0.568434E-13  0.166E-06    3.60   11790.1  T
     SCC iter.                  ...        0 min,  0.074 sec
     gradient                   ...        0 min,  0.002 sec
 * total energy  :   -31.5522493 Eh     change       -0.5553591E-05 Eh
   gradient norm :     0.0005135 Eh/α   predicted    -0.2125440E-05 ( -61.73%)
   displ. norm   :     0.0713579 α      lambda       -0.4703324E-05
   maximum displ.:     0.0533832 α      in ANC's #1, #2, #10, ...

........................................................................
.............................. CYCLE   29 ..............................
........................................................................

 iter      E             dE          RMSdq      gap      omega  full diag
   1    -32.0725430 -0.320725E+02  0.232E-02    3.59       0.0  T
   2    -32.0725431 -0.471224E-07  0.135E-02    3.59       1.5  T
   3    -32.0725431 -0.178731E-08  0.123E-03    3.59      15.9  T
   4    -32.0725431 -0.682043E-08  0.456E-04    3.59      43.0  T
   5    -32.0725431 -0.181230E-08  0.171E-04    3.59     114.6  T
   6    -32.0725431 -0.318700E-09  0.912E-05    3.59     215.1  T
   7    -32.0725431 -0.469100E-10  0.218E-05    3.59     899.6  T
   8    -32.0725431 -0.335376E-11  0.920E-06    3.59    2130.9  T
   9    -32.0725431 -0.390799E-12  0.303E-06    3.59    6466.9  T
     SCC iter.                  ...        0 min,  0.074 sec
     gradient                   ...        0 min,  0.002 sec
 * total energy  :   -31.5522551 Eh     change       -0.5809545E-05 Eh
   gradient norm :     0.0003766 Eh/α   predicted    -0.2361732E-05 ( -59.35%)
   displ. norm   :     0.0577405 α      lambda       -0.3243437E-05
   maximum displ.:     0.0456440 α      in ANC's #1, #3, #2, ...

........................................................................
.............................. CYCLE   30 ..............................
........................................................................

 iter      E             dE          RMSdq      gap      omega  full diag
   1    -32.0725782 -0.320726E+02  0.194E-02    3.60       0.0  T
   2    -32.0725783 -0.306787E-07  0.113E-02    3.60       1.7  T
   3    -32.0725783 -0.273552E-09  0.950E-04    3.60      20.6  T
   4    -32.0725783 -0.598556E-08  0.424E-04    3.60      46.2  T
   5    -32.0725783 -0.159271E-08  0.144E-04    3.60     136.4  T
   6    -32.0725783 -0.137405E-09  0.655E-05    3.60     299.3  T
   7    -32.0725783 -0.606093E-11  0.143E-05    3.60    1371.0  T
   8    -32.0725783 -0.122213E-11  0.710E-06    3.60    2760.4  T
   9    -32.0725783 -0.547118E-12  0.273E-06    3.60    7180.0  T
     SCC iter.                  ...        0 min,  0.076 sec
     gradient                   ...        0 min,  0.002 sec
 * total energy  :   -31.5522591 Eh     change       -0.3974074E-05 Eh
   gradient norm :     0.0002522 Eh/α   predicted    -0.1624469E-05 ( -59.12%)
   displ. norm   :     0.0355973 α      lambda       -0.1998380E-05
   maximum displ.:     0.0303664 α      in ANC's #1, #3, #2, ...

........................................................................
.............................. CYCLE   31 ..............................
........................................................................

 iter      E             dE          RMSdq      gap      omega  full diag
   1    -32.0727075 -0.320727E+02  0.127E-02    3.60       0.0  T
   2    -32.0727075 -0.145251E-07  0.736E-03    3.60       2.7  T
   3    -32.0727075 -0.104833E-08  0.625E-04    3.60      31.4  T
   4    -32.0727075 -0.172592E-08  0.243E-04    3.60      80.6  T
   5    -32.0727075 -0.475559E-09  0.862E-05    3.60     227.5  T
   6    -32.0727075 -0.643254E-10  0.408E-05    3.60     480.6  T
   7    -32.0727075 -0.278533E-11  0.932E-06    3.60    2105.3  T
   8    -32.0727075 -0.994760E-13  0.415E-06    3.60    4726.6  T
     SCC iter.                  ...        0 min,  0.075 sec
     gradient                   ...        0 min,  0.006 sec
 * total energy  :   -31.5522618 Eh     change       -0.2665817E-05 Eh
   gradient norm :     0.0001540 Eh/α   predicted    -0.1001018E-05 ( -62.45%)
   displ. norm   :     0.0240570 α      lambda       -0.1577420E-05
   maximum displ.:     0.0214964 α      in ANC's #1, #3, #4, ...

........................................................................
.............................. CYCLE   32 ..............................
........................................................................

 iter      E             dE          RMSdq      gap      omega  full diag
   1    -32.0727538 -0.320728E+02  0.916E-03    3.60       0.0  T
   2    -32.0727538 -0.701711E-08  0.535E-03    3.60       3.7  T
   3    -32.0727538  0.466784E-09  0.479E-04    3.60      40.9  T
   4    -32.0727538 -0.197116E-08  0.160E-04    3.60     122.8  T
   5    -32.0727538 -0.141391E-09  0.813E-05    3.60     241.3  T
   6    -32.0727538 -0.655191E-10  0.345E-05    3.60     567.7  T
   7    -32.0727538 -0.568434E-13  0.722E-06    3.60    2718.2  T
   8    -32.0727538 -0.101608E-11  0.225E-06    3.60    8730.4  T
     SCC iter.                  ...        0 min,  0.077 sec
     gradient                   ...        0 min,  0.002 sec
 * total energy  :   -31.5522640 Eh     change       -0.2257862E-05 Eh
   gradient norm :     0.0001839 Eh/α   predicted    -0.7897610E-06 ( -65.02%)
   displ. norm   :     0.0256893 α      lambda       -0.1825911E-05
   maximum displ.:     0.0213824 α      in ANC's #1, #4, #5, ...

........................................................................
.............................. CYCLE   33 ..............................
........................................................................

 iter      E             dE          RMSdq      gap      omega  full diag
   1    -32.0727566 -0.320728E+02  0.967E-03    3.60       0.0  T
   2    -32.0727566 -0.767467E-08  0.561E-03    3.60       3.5  T
   3    -32.0727566  0.205645E-08  0.516E-04    3.60      38.0  T
   4    -32.0727566 -0.264459E-08  0.266E-04    3.60      73.7  T
   5    -32.0727566 -0.131966E-08  0.664E-05    3.60     295.5  T
   6    -32.0727566 -0.198028E-10  0.315E-05    3.60     623.3  T
   7    -32.0727566 -0.241585E-12  0.814E-06    3.60    2409.7  T
   8    -32.0727566 -0.150635E-11  0.222E-06    3.60    8834.3  T
     SCC iter.                  ...        0 min,  0.086 sec
     gradient                   ...        0 min,  0.004 sec
 * total energy  :   -31.5522666 Eh     change       -0.2606842E-05 Eh
   gradient norm :     0.0002015 Eh/α   predicted    -0.9165378E-06 ( -64.84%)
   displ. norm   :     0.0335416 α      lambda       -0.2261625E-05
   maximum displ.:     0.0262343 α      in ANC's #1, #4, #5, ...

........................................................................
.............................. CYCLE   34 ..............................
........................................................................

 iter      E             dE          RMSdq      gap      omega  full diag
   1    -32.0727472 -0.320727E+02  0.123E-02    3.60       0.0  T
   2    -32.0727472 -0.110295E-07  0.715E-03    3.60       2.7  T
   3    -32.0727472  0.354784E-08  0.691E-04    3.60      28.4  T
   4    -32.0727472 -0.538546E-08  0.297E-04    3.60      65.9  T
   5    -32.0727472 -0.122192E-08  0.103E-04    3.60     191.0  T
   6    -32.0727472 -0.755449E-10  0.512E-05    3.60     383.1  T
   7    -32.0727472 -0.544276E-11  0.107E-05    3.60    1825.7  T
   8    -32.0727472 -0.193268E-11  0.360E-06    3.60    5445.2  T
   9    -32.0727472 -0.120792E-12  0.161E-06    3.60   12192.8  T
     SCC iter.                  ...        0 min,  0.103 sec
     gradient                   ...        0 min,  0.003 sec
 * total energy  :   -31.5522698 Eh     change       -0.3136875E-05 Eh
   gradient norm :     0.0001792 Eh/α   predicted    -0.1134446E-05 ( -63.84%)
   displ. norm   :     0.0396020 α      lambda       -0.2384500E-05
   maximum displ.:     0.0304924 α      in ANC's #1, #4, #2, ...

........................................................................
.............................. CYCLE   35 ..............................
........................................................................

 iter      E             dE          RMSdq      gap      omega  full diag
   1    -32.0727145 -0.320727E+02  0.142E-02    3.60       0.0  T
   2    -32.0727145 -0.151415E-07  0.825E-03    3.60       2.4  T
   3    -32.0727145  0.769378E-08  0.836E-04    3.60      23.5  T
   4    -32.0727145 -0.945526E-08  0.382E-04    3.60      51.3  T
   5    -32.0727145 -0.251596E-08  0.101E-04    3.60     195.1  T
   6    -32.0727145 -0.381064E-10  0.522E-05    3.60     376.1  T
   7    -32.0727145 -0.107931E-10  0.136E-05    3.60    1440.0  T
   8    -32.0727145 -0.250111E-11  0.385E-06    3.60    5092.8  T
   9    -32.0727145 -0.163425E-12  0.176E-06    3.60   11115.9  T
     SCC iter.                  ...        0 min,  0.085 sec
     gradient                   ...        0 min,  0.002 sec
 * total energy  :   -31.5522730 Eh     change       -0.3265052E-05 Eh
   gradient norm :     0.0001450 Eh/α   predicted    -0.1195634E-05 ( -63.38%)
   displ. norm   :     0.0382911 α      lambda       -0.2095413E-05
   maximum displ.:     0.0300354 α      in ANC's #1, #4, #2, ...

........................................................................
.............................. CYCLE   36 ..............................
........................................................................

 iter      E             dE          RMSdq      gap      omega  full diag
   1    -32.0726859 -0.320727E+02  0.136E-02    3.60       0.0  T
   2    -32.0726860 -0.144969E-07  0.790E-03    3.60       2.5  T
   3    -32.0726859  0.661723E-08  0.827E-04    3.60      23.7  T
   4    -32.0726860 -0.864123E-08  0.368E-04    3.60      53.3  T
   5    -32.0726860 -0.221641E-08  0.105E-04    3.60     186.8  T
   6    -32.0726860 -0.435136E-10  0.557E-05    3.60     351.8  T
   7    -32.0726860 -0.151203E-10  0.133E-05    3.60    1472.5  T
   8    -32.0726860 -0.213163E-11  0.461E-06    3.60    4257.0  T
   9    -32.0726860 -0.213163E-12  0.171E-06    3.60   11454.8  T
     SCC iter.                  ...        0 min,  0.080 sec
     gradient                   ...        0 min,  0.002 sec
 * total energy  :   -31.5522759 Eh     change       -0.2900934E-05 Eh
   gradient norm :     0.0001281 Eh/α   predicted    -0.1049725E-05 ( -63.81%)
   displ. norm   :     0.0326281 α      lambda       -0.1755572E-05
   maximum displ.:     0.0264740 α      in ANC's #1, #2, #4, ...

........................................................................
.............................. CYCLE   37 ..............................
........................................................................

 iter      E             dE          RMSdq      gap      omega  full diag
   1    -32.0726725 -0.320727E+02  0.117E-02    3.60       0.0  T
   2    -32.0726725 -0.879532E-08  0.684E-03    3.60       2.9  T
   3    -32.0726725  0.396363E-08  0.652E-04    3.60      30.1  T
   4    -32.0726726 -0.581354E-08  0.264E-04    3.60      74.4  T
   5    -32.0726726 -0.889074E-09  0.936E-05    3.60     209.5  T
   6    -32.0726726 -0.551665E-10  0.472E-05    3.60     415.5  T
   7    -32.0726726 -0.755307E-11  0.111E-05    3.60    1766.3  T
   8    -32.0726726 -0.152056E-11  0.382E-06    3.60    5139.2  T
   9    -32.0726726 -0.639488E-13  0.154E-06    3.60   12708.7  T
     SCC iter.                  ...        0 min,  0.082 sec
     gradient                   ...        0 min,  0.002 sec
 * total energy  :   -31.5522784 Eh     change       -0.2470546E-05 Eh
   gradient norm :     0.0001298 Eh/α   predicted    -0.8801371E-06 ( -64.37%)
   displ. norm   :     0.0288405 α      lambda       -0.1595927E-05
   maximum displ.:     0.0241792 α      in ANC's #1, #2, #4, ...

........................................................................
.............................. CYCLE   38 ..............................
........................................................................

 iter      E             dE          RMSdq      gap      omega  full diag
   1    -32.0726758 -0.320727E+02  0.105E-02    3.60       0.0  T
   2    -32.0726759 -0.656043E-08  0.612E-03    3.60       3.2  T
   3    -32.0726759  0.350366E-08  0.574E-04    3.60      34.2  T
   4    -32.0726759 -0.524509E-08  0.225E-04    3.60      87.3  T
   5    -32.0726759 -0.660826E-09  0.786E-05    3.60     249.5  T
   6    -32.0726759 -0.247766E-10  0.376E-05    3.60     522.0  T
   7    -32.0726759 -0.739675E-11  0.962E-06    3.60    2039.1  T
   8    -32.0726759 -0.987654E-12  0.334E-06    3.60    5878.2  T
     SCC iter.                  ...        0 min,  0.078 sec
     gradient                   ...        0 min,  0.002 sec
 * total energy  :   -31.5522807 Eh     change       -0.2277097E-05 Eh
   gradient norm :     0.0001268 Eh/α   predicted    -0.7994734E-06 ( -64.89%)
   displ. norm   :     0.0263421 α      lambda       -0.1502013E-05
   maximum displ.:     0.0227786 α      in ANC's #1, #2, #6, ...

........................................................................
.............................. CYCLE   39 ..............................
........................................................................

 iter      E             dE          RMSdq      gap      omega  full diag
   1    -32.0726698 -0.320727E+02  0.970E-03    3.60       0.0  T
   2    -32.0726699 -0.560856E-08  0.567E-03    3.60       3.5  T
   3    -32.0726698  0.139418E-08  0.464E-04    3.60      42.3  T
   4    -32.0726699 -0.280811E-08  0.199E-04    3.60      98.6  T
   5    -32.0726699 -0.470692E-09  0.745E-05    3.60     263.4  T
   6    -32.0726699 -0.315197E-10  0.351E-05    3.60     558.2  T
   7    -32.0726699 -0.272848E-11  0.818E-06    3.60    2399.0  T
   8    -32.0726699 -0.112976E-11  0.322E-06    3.60    6090.6  T
     SCC iter.                  ...        0 min,  0.075 sec
     gradient                   ...        0 min,  0.002 sec
 * total energy  :   -31.5522828 Eh     change       -0.2156403E-05 Eh
   gradient norm :     0.0001162 Eh/α   predicted    -0.7520222E-06 ( -65.13%)
   displ. norm   :     0.0256083 α      lambda       -0.1467490E-05
   maximum displ.:     0.0224891 α      in ANC's #1, #2, #3, ...

........................................................................
.............................. CYCLE   40 ..............................
........................................................................

 iter      E             dE          RMSdq      gap      omega  full diag
   1    -32.0726874 -0.320727E+02  0.946E-03    3.60       0.0  T
   2    -32.0726874 -0.432583E-08  0.554E-03    3.60       3.5  T
   3    -32.0726874  0.126997E-08  0.422E-04    3.60      46.5  T
   4    -32.0726874 -0.279505E-08  0.157E-04    3.60     125.2  T
   5    -32.0726874 -0.191477E-09  0.719E-05    3.60     272.7  T
   6    -32.0726874 -0.286846E-10  0.269E-05    3.60     728.8  T
   7    -32.0726874 -0.199663E-11  0.693E-06    3.60    2829.6  T
   8    -32.0726874 -0.660805E-12  0.260E-06    3.60    7546.6  T
     SCC iter.                  ...        0 min,  0.077 sec
     gradient                   ...        0 min,  0.002 sec
 * total energy  :   -31.5522849 Eh     change       -0.2114388E-05 Eh
   gradient norm :     0.0001060 Eh/α   predicted    -0.7349120E-06 ( -65.24%)
   displ. norm   :     0.0256580 α      lambda       -0.1441322E-05
   maximum displ.:     0.0225008 α      in ANC's #1, #3, #4, ...

........................................................................
.............................. CYCLE   41 ..............................
........................................................................

 iter      E             dE          RMSdq      gap      omega  full diag
   1    -32.0726915 -0.320727E+02  0.927E-03    3.60       0.0  T
   2    -32.0726915 -0.482275E-08  0.543E-03    3.60       3.6  T
   3    -32.0726915  0.396383E-09  0.391E-04    3.60      50.2  T
   4    -32.0726915 -0.176964E-08  0.166E-04    3.60     118.2  T
   5    -32.0726915 -0.250935E-09  0.697E-05    3.60     281.3  T
   6    -32.0726915 -0.312284E-10  0.297E-05    3.60     661.2  T
   7    -32.0726915 -0.109424E-11  0.681E-06    3.60    2880.5  T
   8    -32.0726915 -0.959233E-12  0.276E-06    3.60    7114.9  T
     SCC iter.                  ...        0 min,  0.076 sec
     gradient                   ...        0 min,  0.002 sec
 * total energy  :   -31.5522870 Eh     change       -0.2093603E-05 Eh
   gradient norm :     0.0001031 Eh/α   predicted    -0.7221180E-06 ( -65.51%)
   displ. norm   :     0.0257556 α      lambda       -0.1418988E-05
   maximum displ.:     0.0223088 α      in ANC's #1, #3, #4, ...

........................................................................
.............................. CYCLE   42 ..............................
........................................................................

 iter      E             dE          RMSdq      gap      omega  full diag
   1    -32.0727052 -0.320727E+02  0.906E-03    3.60       0.0  T
   2    -32.0727052 -0.409288E-08  0.530E-03    3.60       3.7  T
   3    -32.0727052  0.624446E-09  0.380E-04    3.60      51.6  T
   4    -32.0727052 -0.194643E-08  0.151E-04    3.60     129.9  T
   5    -32.0727052 -0.187100E-09  0.691E-05    3.60     283.7  T
   6    -32.0727052 -0.305391E-10  0.260E-05    3.60     755.7  T
   7    -32.0727052 -0.115818E-11  0.598E-06    3.60    3279.2  T
   8    -32.0727052 -0.504485E-12  0.238E-06    3.60    8242.8  T
     SCC iter.                  ...        0 min,  0.076 sec
     gradient                   ...        0 min,  0.002 sec
 * total energy  :   -31.5522891 Eh     change       -0.2068714E-05 Eh
   gradient norm :     0.0001067 Eh/α   predicted    -0.7113125E-06 ( -65.62%)
   displ. norm   :     0.0261784 α      lambda       -0.1420575E-05
   maximum displ.:     0.0223247 α      in ANC's #1, #3, #4, ...
 * RMSD in coord.:     0.1413158 α      energy gain  -0.9362733E-04 Eh

generating ANC from model Hessian ...
Using Lindh-Hessian (1995)
 Shifting diagonal of input Hessian by   9.167161204912245E-003
 Lowest  eigenvalues of input Hessian
    0.000000    0.000000    0.000000    0.000000    0.000000    0.000000
    0.010000    0.010130    0.010682    0.011205    0.011835    0.012442
    0.015300    0.017862    0.018419    0.019363    0.020718    0.024179
 Highest eigenvalues
    1.364369    1.554606    1.574275    1.882845    1.988618    2.004921
 

........................................................................
.............................. CYCLE   43 ..............................
........................................................................

 iter      E             dE          RMSdq      gap      omega  full diag
   1    -32.0727170 -0.320727E+02  0.897E-03    3.60       0.0  T
   2    -32.0727170 -0.474397E-08  0.525E-03    3.60       3.7  T
   3    -32.0727170  0.492122E-10  0.377E-04    3.60      52.0  T
   4    -32.0727170 -0.132322E-08  0.156E-04    3.60     125.6  T
   5    -32.0727170 -0.186837E-09  0.658E-05    3.60     298.1  T
   6    -32.0727170 -0.280878E-10  0.287E-05    3.60     683.3  T
   7    -32.0727170 -0.123634E-11  0.603E-06    3.60    3251.8  T
   8    -32.0727170 -0.603961E-12  0.256E-06    3.60    7670.2  T
     SCC iter.                  ...        0 min,  0.079 sec
     gradient                   ...        0 min,  0.002 sec
 * total energy  :   -31.5522912 Eh     change       -0.2075453E-05 Eh
   gradient norm :     0.0001077 Eh/α   predicted     0.0000000E+00 (-100.00%)
   displ. norm   :     0.0142636 α      lambda       -0.2094393E-07
   maximum displ.:     0.0140258 α      in ANC's #1, #5, #8, ...

........................................................................
.............................. CYCLE   44 ..............................
........................................................................

 iter      E             dE          RMSdq      gap      omega  full diag
   1    -32.0727192 -0.320727E+02  0.551E-03    3.60       0.0  T
   2    -32.0727192 -0.206695E-08  0.320E-03    3.60       6.1  T
   3    -32.0727192 -0.202853E-09  0.201E-04    3.60      97.7  T
   4    -32.0727192 -0.122888E-09  0.115E-04    3.60     170.0  T
   5    -32.0727192 -0.233271E-09  0.311E-05    3.60     630.3  T
   6    -32.0727192 -0.132871E-11  0.146E-05    3.60    1339.5  T
   7    -32.0727192 -0.632383E-12  0.399E-06    3.60    4911.7  T
   8    -32.0727192 -0.113687E-12  0.140E-06    3.60   13977.0  T
     SCC iter.                  ...        0 min,  0.078 sec
     gradient                   ...        0 min,  0.002 sec
 * total energy  :   -31.5522925 Eh     change       -0.1348745E-05 Eh
   gradient norm :     0.0001081 Eh/α   predicted    -0.4629957E-06 ( -65.67%)
   displ. norm   :     0.0156493 α      lambda       -0.9659364E-06
   maximum displ.:     0.0149535 α      in ANC's #1, #5, #9, ...

........................................................................
.............................. CYCLE   45 ..............................
........................................................................

 iter      E             dE          RMSdq      gap      omega  full diag
   1    -32.0727203 -0.320727E+02  0.624E-03    3.60       0.0  T
   2    -32.0727203 -0.209445E-08  0.364E-03    3.60       5.4  T
   3    -32.0727203  0.526597E-09  0.291E-04    3.60      67.4  T
   4    -32.0727203 -0.106436E-08  0.115E-04    3.60     170.0  T
   5    -32.0727203 -0.147693E-09  0.417E-05    3.60     470.6  T
   6    -32.0727203 -0.955680E-11  0.189E-05    3.60    1036.5  T
   7    -32.0727203 -0.746070E-12  0.471E-06    3.60    4166.2  T
   8    -32.0727203 -0.405009E-12  0.162E-06    3.60   12137.1  T
     SCC iter.                  ...        0 min,  0.075 sec
     gradient                   ...        0 min,  0.002 sec
 * total energy  :   -31.5522940 Eh     change       -0.1431152E-05 Eh
   gradient norm :     0.0001044 Eh/α   predicted    -0.4865134E-06 ( -66.01%)
   displ. norm   :     0.0166472 α      lambda       -0.9974814E-06
   maximum displ.:     0.0156863 α      in ANC's #1, #2, #9, ...

........................................................................
.............................. CYCLE   46 ..............................
........................................................................

 iter      E             dE          RMSdq      gap      omega  full diag
   1    -32.0727237 -0.320727E+02  0.650E-03    3.60       0.0  T
   2    -32.0727237 -0.282029E-08  0.378E-03    3.60       5.2  T
   3    -32.0727237  0.152468E-09  0.284E-04    3.60      69.0  T
   4    -32.0727237 -0.683897E-09  0.135E-04    3.60     145.2  T
   5    -32.0727237 -0.242061E-09  0.451E-05    3.60     434.4  T
   6    -32.0727237 -0.125056E-10  0.210E-05    3.60     931.8  T
   7    -32.0727237 -0.108713E-11  0.522E-06    3.60    3756.6  T
   8    -32.0727237 -0.348166E-12  0.168E-06    3.60   11694.0  T
     SCC iter.                  ...        0 min,  0.074 sec
     gradient                   ...        0 min,  0.002 sec
 * total energy  :   -31.5522954 Eh     change       -0.1454636E-05 Eh
   gradient norm :     0.0000953 Eh/α   predicted    -0.5004451E-06 ( -65.60%)
   displ. norm   :     0.0175046 α      lambda       -0.1007997E-05
   maximum displ.:     0.0162929 α      in ANC's #1, #2, #9, ...

........................................................................
.............................. CYCLE   47 ..............................
........................................................................

 iter      E             dE          RMSdq      gap      omega  full diag
   1    -32.0727214 -0.320727E+02  0.686E-03    3.60       0.0  T
   2    -32.0727214 -0.287864E-08  0.401E-03    3.60       4.9  T
   3    -32.0727214  0.663995E-09  0.350E-04    3.60      56.1  T
   4    -32.0727214 -0.141473E-08  0.127E-04    3.60     154.6  T
   5    -32.0727214 -0.142670E-09  0.555E-05    3.60     353.1  T
   6    -32.0727214 -0.264819E-10  0.244E-05    3.60     803.5  T
   7    -32.0727214 -0.859757E-12  0.526E-06    3.60    3729.8  T
   8    -32.0727214 -0.447642E-12  0.181E-06    3.60   10829.7  T
     SCC iter.                  ...        0 min,  0.073 sec
     gradient                   ...        0 min,  0.002 sec
 * total energy  :   -31.5522969 Eh     change       -0.1480416E-05 Eh
   gradient norm :     0.0000940 Eh/α   predicted    -0.5049897E-06 ( -65.89%)
   displ. norm   :     0.0181442 α      lambda       -0.1024405E-05
   maximum displ.:     0.0167097 α      in ANC's #1, #2, #9, ...

........................................................................
.............................. CYCLE   48 ..............................
........................................................................

 iter      E             dE          RMSdq      gap      omega  full diag
   1    -32.0727237 -0.320727E+02  0.706E-03    3.60       0.0  T
   2    -32.0727237 -0.327705E-08  0.411E-03    3.60       4.8  T
   3    -32.0727237  0.167589E-09  0.304E-04    3.60      64.5  T
   4    -32.0727237 -0.738233E-09  0.151E-04    3.60     129.9  T
   5    -32.0727237 -0.326416E-09  0.500E-05    3.60     392.4  T
   6    -32.0727237 -0.184244E-10  0.234E-05    3.60     837.1  T
   7    -32.0727237 -0.100187E-11  0.510E-06    3.60    3844.3  T
   8    -32.0727237 -0.383693E-12  0.201E-06    3.60    9769.2  T
     SCC iter.                  ...        0 min,  0.074 sec
     gradient                   ...        0 min,  0.002 sec
 * total energy  :   -31.5522984 Eh     change       -0.1509920E-05 Eh
   gradient norm :     0.0000931 Eh/α   predicted    -0.5133486E-06 ( -66.00%)
   displ. norm   :     0.0190084 α      lambda       -0.1059613E-05
   maximum displ.:     0.0172869 α      in ANC's #1, #2, #10, ...

........................................................................
.............................. CYCLE   49 ..............................
........................................................................

 iter      E             dE          RMSdq      gap      omega  full diag
   1    -32.0727229 -0.320727E+02  0.733E-03    3.60       0.0  T
   2    -32.0727229 -0.354630E-08  0.428E-03    3.60       4.6  T
   3    -32.0727229  0.234749E-09  0.325E-04    3.60      60.3  T
   4    -32.0727229 -0.938144E-09  0.155E-04    3.60     126.5  T
   5    -32.0727229 -0.318778E-09  0.535E-05    3.60     366.7  T
   6    -32.0727229 -0.169251E-10  0.252E-05    3.60     777.2  T
   7    -32.0727229 -0.187583E-11  0.594E-06    3.60    3302.7  T
   8    -32.0727229 -0.426326E-12  0.210E-06    3.60    9324.2  T
     SCC iter.                  ...        0 min,  0.074 sec
     gradient                   ...        0 min,  0.002 sec
 * total energy  :   -31.5523000 Eh     change       -0.1569632E-05 Eh
   gradient norm :     0.0000927 Eh/α   predicted    -0.5305200E-06 ( -66.20%)
   displ. norm   :     0.0202293 α      lambda       -0.1122103E-05
   maximum displ.:     0.0181160 α      in ANC's #1, #2, #3, ...

........................................................................
.............................. CYCLE   50 ..............................
........................................................................

 iter      E             dE          RMSdq      gap      omega  full diag
   1    -32.0727258 -0.320727E+02  0.782E-03    3.60       0.0  T
   2    -32.0727258 -0.382943E-08  0.456E-03    3.60       4.3  T
[...]
         :: total charge               0.000000000000 e     ::
         :::::::::::::::::::::::::::::::::::::::::::::::::::::

           ------------------------------------------------- 
          |                Numerical Hessian                |
           ------------------------------------------------- 
step length          :   0.00500
SCC accuracy         :   0.30000
Hessian scale factor :   1.00000
frozen atoms in %    :   0.00000    0
RMS gradient         :   0.00005
estimated CPU  time      1.11 min
estimated wall time      0.13 min

writing file <hessian>.

 projected vibrational frequencies (cm⁻¹)
eigval :       -0.00    -0.00    -0.00    -0.00     0.00     0.00
eigval :       22.01    74.85   109.09   128.71   164.85   175.69
eigval :      217.55   229.28   252.97   261.13   287.67   365.69
eigval :      378.52   409.28   460.64   585.62   643.80   660.25
eigval :      682.70   688.12   736.64   749.24   779.19   876.76
eigval :      900.73   928.40   933.68   968.15   990.96   998.94
eigval :     1017.68  1020.17  1061.14  1080.64  1084.64  1115.36
eigval :     1121.23  1181.51  1202.12  1228.81  1232.71  1247.83
eigval :     1276.34  1283.99  1316.07  1408.76  1410.69  1421.41
eigval :     1442.79  1455.71  1462.83  1497.61  1503.15  1505.41
eigval :     1512.56  1578.18  1588.99  2928.63  2941.93  2948.21
eigval :     2950.90  3008.04  3012.34  3025.32  3031.11  3034.27
eigval :     3042.30  3058.07  3066.89  3073.86  3086.48  3099.73
           -------------------------------------------------
          |                Property Printout                |
           -------------------------------------------------

    * Orbital Energies and Occupations

         #    Occupation            Energy/Eh            Energy/eV
      -------------------------------------------------------------
         1        2.0000           -0.6577981             -17.8996
       ...           ...                  ...                  ...
        18        2.0000           -0.4749542             -12.9242
        19        2.0000           -0.4731639             -12.8754
        20        2.0000           -0.4666522             -12.6983
        21        2.0000           -0.4608891             -12.5414
        22        2.0000           -0.4563759             -12.4186
        23        2.0000           -0.4435685             -12.0701
        24        2.0000           -0.4414902             -12.0136
        25        2.0000           -0.4234792             -11.5235
        26        2.0000           -0.4156659             -11.3108
        27        2.0000           -0.4054723             -11.0335
        28        2.0000           -0.4021889             -10.9441
        29        2.0000           -0.3975460             -10.8178
        30        2.0000           -0.3634011              -9.8886 (HOMO)
        31                         -0.2297204              -6.2510 (LUMO)
        32                         -0.2212426              -6.0203
        33                         -0.1564438              -4.2571
        34                         -0.1501284              -4.0852
        35                         -0.0924917              -2.5168
        36                         -0.0117498              -0.3197
        37                          0.0647958               1.7632
        38                          0.0901362               2.4527
        39                          0.1147782               3.1233
        40                          0.1227638               3.3406
        41                          0.1346585               3.6642
       ...                                ...                  ...
        64                          0.7723175              21.0158
      -------------------------------------------------------------
                  HL-Gap            0.1336808 Eh            3.6376 eV
             Fermi-level           -0.2965608 Eh           -8.0698 eV

     #   Z          covCN         q      C6AA      α(0)
     1  15 P        3.005    -0.118   165.593    23.118
     2   6 C        3.748    -0.043    21.416     6.601
     3   1 H        0.926     0.042     2.425     2.435
     4   1 H        0.925     0.046     2.368     2.406
     5   6 C        3.808    -0.098    22.368     6.732
     6   1 H        0.925     0.042     2.429     2.437
     7   1 H        0.925     0.039     2.459     2.452
     8   1 H        0.925     0.033     2.546     2.495
     9   6 C        2.915     0.010    27.801     8.646
    10   6 C        2.954    -0.033    28.820     8.805
    11   6 C        3.035    -0.031    28.736     8.793
    12   6 C        2.920    -0.031    28.785     8.798
    13   6 C        2.918    -0.030    28.759     8.794
    14   6 C        2.920    -0.030    28.760     8.794
    15   1 H        0.926     0.036     2.503     2.474
    16   1 H        0.925     0.038     2.476     2.461
    17   1 H        0.926     0.027     2.633     2.538
    18   1 H        0.926     0.028     2.613     2.528
    19   1 H        0.926     0.028     2.619     2.531
    20   6 C        3.747    -0.048    21.499     6.614
    21   1 H        0.926     0.039     2.465     2.455
    22   1 H        0.926     0.044     2.399     2.422
    23   6 C        3.769    -0.095    22.343     6.736
    24   1 H        0.925     0.037     2.495     2.470
    25   1 H        0.925     0.038     2.469     2.457
    26   1 H        0.925     0.033     2.546     2.495

 Mol. C6AA /au·bohr⁶  :       7597.493993
 Mol. C8AA /au·bohr⁸  :     202592.588199
 Mol. α(0) /au        :        139.488971


Wiberg/Mayer (AO) data.
largest (>0.10) Wiberg bond orders for each atom

 ---------------------------------------------------------------------------
     #   Z sym  total        # sym  WBO       # sym  WBO       # sym  WBO
 ---------------------------------------------------------------------------
     1  15 P    3.363 --    20 C    1.028     9 C    1.016     2 C    1.012
     2   6 C    3.996 --     5 C    1.017     1 P    1.012     3 H    0.956
                             4 H    0.953
     3   1 H    0.997 --     2 C    0.956
     4   1 H    0.998 --     2 C    0.953
     5   6 C    3.996 --     2 C    1.017     6 H    0.985     8 H    0.984
                             7 H    0.983
     6   1 H    0.998 --     5 C    0.985
     7   1 H    0.998 --     5 C    0.983
     8   1 H    0.999 --     5 C    0.984
     9   6 C    3.982 --    10 C    1.404    11 C    1.393     1 P    1.016
                            14 C    0.106
    10   6 C    3.992 --    12 C    1.442     9 C    1.404    15 H    0.961
                            13 C    0.108
    11   6 C    3.992 --    13 C    1.452     9 C    1.393    16 H    0.962
                            12 C    0.109
    12   6 C    3.992 --    10 C    1.442    14 C    1.439    17 H    0.970
                            11 C    0.109
    13   6 C    3.991 --    11 C    1.452    14 C    1.432    18 H    0.970
                            10 C    0.108
    14   6 C    3.992 --    12 C    1.439    13 C    1.432    19 H    0.971
                             9 C    0.106
    15   1 H    0.999 --    10 C    0.961
    16   1 H    0.999 --    11 C    0.962
    17   1 H    0.999 --    12 C    0.970
    18   1 H    0.999 --    13 C    0.970
    19   1 H    0.999 --    14 C    0.971
    20   6 C    3.991 --     1 P    1.028    23 C    1.010    21 H    0.959
                            22 H    0.953
    21   1 H    0.998 --    20 C    0.959
    22   1 H    0.998 --    20 C    0.953
    23   6 C    3.997 --    20 C    1.010    24 H    0.986    26 H    0.983
                            25 H    0.981
    24   1 H    0.999 --    23 C    0.986
    25   1 H    0.999 --    23 C    0.981
    26   1 H    0.999 --    23 C    0.983
 ---------------------------------------------------------------------------

Topologies differ in total number of bonds
Writing topology from bond orders to xtbtopo.mol

molecular dipole:
                 x           y           z       tot (Debye)
 q only:        0.161       0.233      -0.166
   full:        0.145       0.406      -0.509       1.696
molecular quadrupole (traceless):
                xx          xy          yy          xz          yz          zz
 q only:        0.373       0.608      -2.457      -3.450      -1.161       2.084
  q+dip:        0.791       1.061      -8.749      -4.016      -1.370       7.958
   full:       -0.114       1.371      -6.132      -4.388      -1.295       6.246

           -------------------------------------------------
          |                Geometry Summary                 |
           -------------------------------------------------

      molecular mass/u    :      166.2002322
   center of mass at/Å    :        0.6039157      -0.0878591      -3.9784881
  moments of inertia/u·Å² :        0.3623776E+03   0.7077000E+03   0.9157831E+03
rotational constants/cm⁻¹ :        0.4651952E-01   0.2382031E-01   0.1840789E-01

 * 23 selected distances

     #   Z          #   Z                                           value/Å
     2   6 C        3   1 H                                       1.0937897
     2   6 C        4   1 H                                       1.0923957
     2   6 C        5   6 C                                       1.5216043
     5   6 C        6   1 H                                       1.0883899
     5   6 C        7   1 H                                       1.0881165
     5   6 C        8   1 H                                       1.0890766
     9   6 C       10   6 C                                       1.3891063
     9   6 C       11   6 C                                       1.3937083
    10   6 C       12   6 C                                       1.3843482
    11   6 C       13   6 C                                       1.3816377
    12   6 C       14   6 C                                       1.3839667
    13   6 C       14   6 C                                       1.3851398
    10   6 C       15   1 H                                       1.0788958 (min)
    11   6 C       16   1 H                                       1.0818013
    12   6 C       17   1 H                                       1.0810206
    13   6 C       18   1 H                                       1.0806895
    14   6 C       19   1 H                                       1.0802538
    20   6 C       21   1 H                                       1.0952122
    20   6 C       22   1 H                                       1.0942372
    20   6 C       23   6 C                                       1.5248832 (max)
    23   6 C       24   1 H                                       1.0871899
    23   6 C       25   1 H                                       1.0872474
    23   6 C       26   1 H                                       1.0896024

 * 2 distinct bonds (by element types)

   Z      Z             #   av. dist./Å        max./Å        min./Å
   1 H    6 C          15     1.0871946     1.0952122     1.0788958
   6 C    6 C           8     1.4205493     1.5248832     1.3816377

           -------------------------------------------------
          |               Frequency Printout                |
           -------------------------------------------------
 projected vibrational frequencies (cm⁻¹)
eigval :       -0.00    -0.00    -0.00    -0.00     0.00     0.00
eigval :       22.01    74.85   109.09   128.71   164.85   175.69
eigval :      217.55   229.28   252.97   261.13   287.67   365.69
eigval :      378.52   409.28   460.64   585.62   643.80   660.25
eigval :      682.70   688.12   736.64   749.24   779.19   876.76
eigval :      900.73   928.40   933.68   968.15   990.96   998.94
eigval :     1017.68  1020.17  1061.14  1080.64  1084.64  1115.36
eigval :     1121.23  1181.51  1202.12  1228.81  1232.71  1247.83
eigval :     1276.34  1283.99  1316.07  1408.76  1410.69  1421.41
eigval :     1442.79  1455.71  1462.83  1497.61  1503.15  1505.41
eigval :     1512.56  1578.18  1588.99  2928.63  2941.93  2948.21
eigval :     2950.90  3008.04  3012.34  3025.32  3031.11  3034.27
eigval :     3042.30  3058.07  3066.89  3073.86  3086.48  3099.73
 reduced masses (amu)
   1: 11.87   2: 12.39   3: 13.91   4: 12.90   5: 12.61   6: 14.25   7:  9.41   8: 10.60
   9:  7.48  10:  9.72  11: 10.20  12:  8.12  13:  6.54  14:  4.69  15:  8.88  16:  6.19
  17: 11.04  18: 10.24  19: 16.57  20: 17.24  21: 10.93  22: 11.17  23: 15.16  24: 10.54
  25: 13.92  26: 14.57  27:  2.88  28:  5.69  29:  4.71  30:  3.27  31:  3.57  32:  3.97
  33:  3.02  34: 10.90  35:  2.77  36:  3.18  37:  3.81  38:  3.88  39:  9.76  40:  9.44
  41:  8.16  42:  8.28  43:  4.62  44:  1.32  45:  1.88  46:  3.30  47:  3.47  48:  4.18
  49:  3.48  50:  3.93  51: 11.91  52:  2.96  53:  2.92  54:  8.48  55:  2.13  56:  6.67
  57:  3.47  58:  1.54  59:  1.55  60:  1.55  61:  1.56  62: 11.44  63: 11.44  64:  1.95
  65:  1.89  66:  1.54  67:  1.55  68:  1.81  69:  1.87  70:  1.88  71:  1.40  72:  1.90
  73:  1.43  74:  1.79  75:  1.77  76:  1.84  77:  1.90  78:  1.84
 IR intensities (km·mol⁻¹)
   1:  0.12   2:  0.01   3:  0.01   4:  0.08   5:  0.30   6:  0.08   7:  0.15   8:  0.09
   9:  0.35  10:  0.09  11:  0.22  12:  0.23  13:  0.03  14:  0.13  15:  0.38  16:  0.28
  17:  0.31  18:  0.25  19:  1.74  20:  0.97  21:  3.68  22:  0.18  23: 19.26  24:  1.03
  25: 16.92  26: 12.42  27: 28.14  28: 17.70  29: 23.51  30:  0.21  31:  0.18  32:  0.06
  33:  0.03  34:  1.46  35:  4.06  36:  0.88  37:  1.65  38:  4.53  39:  7.30  40:  5.44
  41:  1.34  42:  2.46  43:  0.53  44:  0.01  45:  0.82  46:  0.51  47:  2.17  48: 17.16
  49:  1.58  50:  3.04  51:  0.53  52:  2.28  53:  1.38  54:  1.34  55:  0.33  56:  0.51
  57:  1.53  58:  2.39  59:  2.72  60:  1.72  61:  1.17  62:  0.14  63:  2.85  64: 17.45
  65: 31.70  66:  9.42  67: 20.18  68: 45.44  69: 51.81  70: 27.36  71: 14.77  72: 32.55
  73: 21.19  74: 13.59  75:  8.29  76: 53.67  77: 75.08  78: 19.63
 Raman intensities (Ä⁴*amu⁻¹)
   1:  0.00   2:  0.00   3:  0.00   4:  0.00   5:  0.00   6:  0.00   7:  0.00   8:  0.00
   9:  0.00  10:  0.00  11:  0.00  12:  0.00  13:  0.00  14:  0.00  15:  0.00  16:  0.00
  17:  0.00  18:  0.00  19:  0.00  20:  0.00  21:  0.00  22:  0.00  23:  0.00  24:  0.00
  25:  0.00  26:  0.00  27:  0.00  28:  0.00  29:  0.00  30:  0.00  31:  0.00  32:  0.00
  33:  0.00  34:  0.00  35:  0.00  36:  0.00  37:  0.00  38:  0.00  39:  0.00  40:  0.00
  41:  0.00  42:  0.00  43:  0.00  44:  0.00  45:  0.00  46:  0.00  47:  0.00  48:  0.00
  49:  0.00  50:  0.00  51:  0.00  52:  0.00  53:  0.00  54:  0.00  55:  0.00  56:  0.00
  57:  0.00  58:  0.00  59:  0.00  60:  0.00  61:  0.00  62:  0.00  63:  0.00  64:  0.00
  65:  0.00  66:  0.00  67:  0.00  68:  0.00  69:  0.00  70:  0.00  71:  0.00  72:  0.00
  73:  0.00  74:  0.00  75:  0.00  76:  0.00  77:  0.00  78:  0.00
 output can be read by thermo (or use thermo option).
 writing <g98.out> molden fake output.
 recommended (thermochemical) frequency scaling factor: 1.0
           -------------------------------------------------
          |             Thermodynamic Functions             |
           -------------------------------------------------

Refinement of some symmetry elements was terminated before convergence was reached.
Some symmetry elements may remain unidentified.
Molecule has no symmetry elements
It seems to be the C1 point group
c1  symmetry found (for desy threshold:  0.10E+00) used in thermo

          ...................................................
          :                      SETUP                      :
          :.................................................:
          :  # frequencies                          72      :
          :  # imaginary freq.                       0      :
          :  linear?                             false      :
          :  only rotor calc.                    false      :
          :  symmetry                               c1      :
          :  rotational number                       1      :
          :  scaling factor                  1.0000000      :
          :  rotor cutoff                   50.0000000 cm⁻¹ :
          :  imag. cutoff                  -20.0000000 cm⁻¹ :
          :.................................................:

    mode    ω/cm⁻¹     T·S(HO)/kcal·mol⁻¹    T·S(FR)/kcal·mol⁻¹   T·S(vib)
   ------------------------------------------------------------------------
       1     22.01    -1.92136 (  3.62%)    -1.29931 ( 96.38%)    -1.32182
       2     74.85    -1.19905 ( 83.39%)    -0.93694 ( 16.61%)    -1.15552
       3    109.09    -0.97944 ( 95.77%)    -0.82537 (  4.23%)    -0.97293
       4    128.71    -0.88407 ( 97.77%)    -0.77638 (  2.23%)    -0.88167
       5    164.85    -0.74341 ( 99.16%)    -0.70309 (  0.84%)    -0.74307
       6    175.69    -0.70774 ( 99.35%)    -0.68423 (  0.65%)    -0.70759
       7    217.55    -0.59016 ( 99.72%)    -0.62092 (  0.28%)    -0.59024
       8    229.28    -0.56189 ( 99.77%)    -0.60537 (  0.23%)    -0.56199
       9    252.97    -0.50977 ( 99.85%)    -0.57624 (  0.15%)    -0.50987
      10    261.13    -0.49320 ( 99.87%)    -0.56683 (  0.13%)    -0.49329
      11    287.67    -0.44354 ( 99.91%)    -0.53817 (  0.09%)    -0.44363
   ------------------------------------------------------------------------

   temp. (K)  partition function   enthalpy   heat capacity  entropy
                                   cal/mol     cal/K/mol   cal/K/mol   J/K/mol
 298.15  VIB  0.982E+04             6034.255     39.520     36.319
         ROT  0.117E+07              888.752      2.981     30.749
         INT  0.115E+11             6923.007     42.501     67.069
         TR   0.207E+28             1481.254      4.968     41.214
         TOT                        8404.2612    47.4693   108.2822   453.0526

       T/K    H(0)-H(T)+PV         H(T)/Eh          T*S/Eh         G(T)/Eh
   ------------------------------------------------------------------------
    298.15    0.133930E-01    0.232615E+00    0.514484E-01    0.181167E+00
   ------------------------------------------------------------------------

         :::::::::::::::::::::::::::::::::::::::::::::::::::::
         ::                  THERMODYNAMIC                  ::
         :::::::::::::::::::::::::::::::::::::::::::::::::::::
         :: total free energy         -31.371466147664 Eh   ::
         ::.................................................::
         :: total energy              -31.552633269719 Eh   ::
         :: zero point energy           0.219222429870 Eh   ::
         :: G(RRHO) w/o ZPVE           -0.038055307815 Eh   ::
         :: G(RRHO) contrib.            0.181167122055 Eh   ::
         :::::::::::::::::::::::::::::::::::::::::::::::::::::

optimized geometry written to: xtbopt.xyz


           -------------------------------------------------
          | TOTAL ENERGY              -31.552633269719 Eh   |
          | TOTAL ENTHALPY            -31.320017797194 Eh   |
          | TOTAL FREE ENERGY         -31.371466147664 Eh   |
          | GRADIENT NORM               0.000049668092 Eh/α |
          | HOMO-LUMO GAP               3.637638385409 eV   |
           -------------------------------------------------

------------------------------------------------------------------------
 * finished run on 2025/07/14 at 11:26:39.207     
------------------------------------------------------------------------
 total:
 * wall-time:     0 d,  0 h,  0 min, 18.259 sec
 *  cpu-time:     0 d,  0 h,  3 min, 22.986 sec
 * ratio c/w:    11.117 speedup
 SCF:
 * wall-time:     0 d,  0 h,  0 min,  0.089 sec
 *  cpu-time:     0 d,  0 h,  0 min,  1.061 sec
 * ratio c/w:    11.934 speedup
 ANC optimizer:
 * wall-time:     0 d,  0 h,  0 min, 14.901 sec
 *  cpu-time:     0 d,  0 h,  2 min, 55.572 sec
 * ratio c/w:    11.783 speedup
 analytical hessian:
 * wall-time:     0 d,  0 h,  0 min,  3.260 sec
 *  cpu-time:     0 d,  0 h,  0 min, 26.256 sec
 * ratio c/w:     8.055 speedup

