      -----------------------------------------------------------      
     |                   =====================                   |     
     |                           x T B                           |     
     |                   =====================                   |     
     |                         S. Grimme                         |     
     |          Mulliken Center for Theoretical Chemistry        |     
     |                    University of Bonn                     |     
      -----------------------------------------------------------      

   * xtb version 6.7.0 (08769fc) compiled by 'albert@albert-system' on 2024-03-04

   xtb is free software: you can redistribute it and/or modify it under
   the terms of the GNU Lesser General Public License as published by
   the Free Software Foundation, either version 3 of the License, or
   (at your option) any later version.
   
   xtb is distributed in the hope that it will be useful,
   but WITHOUT ANY WARRANTY; without even the implied warranty of
   MERCHANTABILITY or FITNESS FOR A PARTICULAR PURPOSE.  See the
   GNU Lesser General Public License for more details.
   
   Cite this work as:
   * C. Bannwarth, E. Caldeweyher, S. Ehlert, A. Hansen, P. Pracht,
     J. Seibert, S. Spicher, S. Grimme, WIREs Comput. Mol. Sci., 2020, 11,
     e01493. DOI: 10.1002/wcms.1493
   
   for GFN2-xTB:
   * C. Bannwarth, S. Ehlert and S. Grimme., J. Chem. Theory Comput., 2019,
     15, 1652-1671. DOI: 10.1021/acs.jctc.8b01176
   for GFN1-xTB:
   * S. Grimme, C. Bannwarth, P. Shushkov, J. Chem. Theory Comput., 2017,
     13, 1989-2009. DOI: 10.1021/acs.jctc.7b00118
   for GFN0-xTB:
   * P. Pracht, E. Caldeweyher, S. Ehlert, S. Grimme, ChemRxiv, 2019, preprint.
     DOI: 10.26434/chemrxiv.8326202.v1
   for GFN-FF:
   * S. Spicher and S. Grimme, Angew. Chem. Int. Ed., 2020, 59, 15665-15673.
     DOI: 10.1002/anie.202004239
   
   for ALPB and GBSA implicit solvation:
   * S. Ehlert, M. Stahn, S. Spicher, S. Grimme, J. Chem. Theory Comput.,
     2021, 17, 4250-4261. DOI: 10.1021/acs.jctc.1c00471
   
   for ddCOSMO and CPCM-X implicit solvation:
   * M. Stahn, S. Ehlert, S. Grimme, J. Phys. Chem. A,
     2023, XX, XXXX-XXXX. DOI: 10.1021/acs.jpca.3c04382
   
   for DFT-D4:
   * E. Caldeweyher, C. Bannwarth and S. Grimme, J. Chem. Phys., 2017,
     147, 034112. DOI: 10.1063/1.4993215
   * E. Caldeweyher, S. Ehlert, A. Hansen, H. Neugebauer, S. Spicher,
     C. Bannwarth and S. Grimme, J. Chem. Phys., 2019, 150, 154122.
     DOI: 10.1063/1.5090222
   * E. Caldeweyher, J.-M. Mewes, S. Ehlert and S. Grimme, Phys. Chem. Chem. Phys.
     2020, 22, 8499-8512. DOI: 10.1039/D0CP00502A
   
   for sTDA-xTB:
   * S. Grimme and C. Bannwarth, J. Chem. Phys., 2016, 145, 054103.
     DOI: 10.1063/1.4959605
   
   in the mass-spec context:
   * V. Asgeirsson, C. Bauer and S. Grimme, Chem. Sci., 2017, 8, 4879.
     DOI: 10.1039/c7sc00601b
   * J. Koopman and S. Grimme, ACS Omega 2019, 4, 12, 15120-15133.
     DOI: 10.1021/acsomega.9b02011
   
   for metadynamics refer to:
   * S. Grimme, J. Chem. Theory Comput., 2019, 155, 2847-2862
     DOI: 10.1021/acs.jctc.9b00143
   
   for SPH calculations refer to:
   * S. Spicher and S. Grimme, J. Chem. Theory Comput., 2021, 17, 1701-1714
     DOI: 10.1021/acs.jctc.0c01306
   
   for ONIOM refer to:
   * C. Plett, A. Katbashev, S. Ehlert, S. Grimme, M. Bursch,
     Phys. Chem. Chem. Phys., 2023, 25, 17860-17868. DOI: 10.1039/D3CP02178E
   
   for DIPRO refer to:
   * J. Kohn, N. Gildemeister, S. Grimme, D. Fazzi, A. Hansen,
     J. Chem. Phys., 2023, just accepted.
   
   for PTB refer to:
   * S. Grimme, M. Mueller, A. Hansen, J. Chem. Phys., 2023, 158, 124111.
     DOI: 10.1063/5.0137838
   
   with help from (in alphabetical order)
   P. Atkinson, C. Bannwarth, F. Bohle, G. Brandenburg, E. Caldeweyher
   M. Checinski, S. Dohm, S. Ehlert, S. Ehrlich, I. Gerasimov, C. Hölzer
   A. Katbashev, J. Kohn, J. Koopman, C. Lavigne, S. Lehtola, F. März, M. Müller,
   F. Musil, H. Neugebauer, J. Pisarek, C. Plett, P. Pracht, F. Pultar,
   J. Seibert, P. Shushkov, S. Spicher, M. Stahn, M. Steiner, T. Strunk,
   J. Stückrath, T. Rose, and J. Unsleber
   
 * started run on 2025/07/14 at 11:28:57.673     
   ID    Z sym.   atoms
    1   15 P      1
    2    6 C      2, 5, 9-14, 20, 23
    3    1 H      3, 4, 6-8, 15-19, 21, 22, 24-26

           -------------------------------------------------
          |                Calculation Setup                |
           -------------------------------------------------

          program call               : /home/minenky/programs/xtb/xtb-dist/bin/xtb m1_00_PEt2Ph-PBE0-D3-TZ-uniMM_27.xyz --charge 0 --T --ohess extreme --cycles 5000 --acc 0.01 --iterations 5000
          coordinate file            : m1_00_PEt2Ph-PBE0-D3-TZ-uniMM_27.xyz
          omp threads                :                    12

########################################################################
[WARNING] Please study the warnings concerning your input carefully
-1- prog_main_parseArguments: Unknown option '--T' provided
########################################################################

           -------------------------------------------------
          |                 G F N 2 - x T B                 |
           -------------------------------------------------

        Reference                      10.1021/acs.jctc.8b01176
      * Hamiltonian:
        H0-scaling (s, p, d)           1.850000    2.230000    2.230000
        zeta-weighting                 0.500000
      * Dispersion:
        s8                             2.700000
        a1                             0.520000
        a2                             5.000000
        s9                             5.000000
      * Repulsion:
        kExp                           1.500000    1.000000
        rExp                           1.000000
      * Coulomb:
        alpha                          2.000000
        third order                    shell-resolved
        anisotropic                    true
        a3                             3.000000
        a5                             4.000000
        cn-shift                       1.200000
        cn-exp                         4.000000
        max-rad                        5.000000


          ...................................................
          :                      SETUP                      :
          :.................................................:
          :  # basis functions                  65          :
          :  # atomic orbitals                  64          :
          :  # shells                           38          :
          :  # electrons                        60          :
          :  max. iterations                  5000          :
          :  Hamiltonian                  GFN2-xTB          :
          :  restarted?                      false          :
          :  GBSA solvation                  false          :
          :  PC potential                    false          :
          :  electronic temp.          300.0000000     K    :
          :  accuracy                    0.0100000          :
          :  -> integral cutoff          0.4500000E+02      :
          :  -> integral neglect         0.1000000E-09      :
          :  -> SCF convergence          0.1000000E-07 Eh   :
          :  -> wf. convergence          0.1000000E-05 e    :
          :  Broyden damping             0.4000000          :
          :  net charge                          0          :
          :  unpaired electrons                  0          :
          ...................................................

 iter      E             dE          RMSdq      gap      omega  full diag
   1    -32.0117857 -0.320118E+02  0.362E+00    4.02       0.0  T
   2    -32.0564265 -0.446409E-01  0.214E+00    3.56       1.0  T
   3    -32.0562273  0.199207E-03  0.861E-01    3.30       1.0  T
   4    -32.0571237 -0.896384E-03  0.278E-01    3.33       1.0  T
   5    -32.0585482 -0.142446E-02  0.118E-01    3.37       1.0  T
   6    -32.0587392 -0.190986E-03  0.433E-02    3.36       1.0  T
   7    -32.0587511 -0.119766E-04  0.167E-02    3.37       1.2  T
   8    -32.0587525 -0.137501E-05  0.664E-03    3.37       3.0  T
   9    -32.0587530 -0.482004E-06  0.141E-03    3.37      13.9  T
  10    -32.0587530 -0.282706E-07  0.627E-04    3.37      31.3  T
  11    -32.0587530 -0.389214E-09  0.265E-04    3.37      73.9  T
  12    -32.0587530 -0.599414E-09  0.534E-05    3.37     367.6  T
  13    -32.0587530 -0.773781E-11  0.267E-05    3.37     733.9  T
  14    -32.0587530 -0.214584E-11  0.921E-06    3.37    2130.3  T
  15    -32.0587530 -0.191847E-12  0.337E-06    3.37    5821.8  T

   *** convergence criteria satisfied after 15 iterations ***

         #    Occupation            Energy/Eh            Energy/eV
      -------------------------------------------------------------
         1        2.0000           -0.6595461             -17.9472
       ...           ...                  ...                  ...
        24        2.0000           -0.4346752             -11.8281
        25        2.0000           -0.4252949             -11.5729
        26        2.0000           -0.4179129             -11.3720
        27        2.0000           -0.4068806             -11.0718
        28        2.0000           -0.4032077             -10.9718
        29        2.0000           -0.3999517             -10.8832
        30        2.0000           -0.3559330              -9.6854 (HOMO)
        31                         -0.2321372              -6.3168 (LUMO)
        32                         -0.2233241              -6.0770
        33                         -0.1556247              -4.2348
        34                         -0.1376444              -3.7455
        35                         -0.0930997              -2.5334
       ...                                ...                  ...
        64                          0.7854175              21.3723
      -------------------------------------------------------------
                  HL-Gap            0.1237957 Eh            3.3687 eV
             Fermi-level           -0.2940351 Eh           -8.0011 eV

 SCC (total)                   0 d,  0 h,  0 min,  0.086 sec
 SCC setup                      ...        0 min,  0.000 sec (  0.149%)
 Dispersion                     ...        0 min,  0.000 sec (  0.143%)
 classical contributions        ...        0 min,  0.000 sec (  0.012%)
 integral evaluation            ...        0 min,  0.002 sec (  2.154%)
 iterations                     ...        0 min,  0.082 sec ( 95.375%)
 molecular gradient             ...        0 min,  0.002 sec (  2.059%)
 printout                       ...        0 min,  0.000 sec (  0.089%)

         :::::::::::::::::::::::::::::::::::::::::::::::::::::
         ::                     SUMMARY                     ::
         :::::::::::::::::::::::::::::::::::::::::::::::::::::
         :: total energy             -31.543970136357 Eh    ::
         :: gradient norm              0.044766388057 Eh/a0 ::
         :: HOMO-LUMO gap              3.368653069848 eV    ::
         ::.................................................::
         :: SCC energy               -32.058612092591 Eh    ::
         :: -> isotropic ES            0.004212077835 Eh    ::
         :: -> anisotropic ES          0.006198269992 Eh    ::
         :: -> anisotropic XC          0.022104378520 Eh    ::
         :: -> dispersion             -0.022740091668 Eh    ::
         :: repulsion energy           0.514641956234 Eh    ::
         :: add. restraining           0.000000000000 Eh    ::
         :: total charge              -0.000000000000 e     ::
         :::::::::::::::::::::::::::::::::::::::::::::::::::::

      ----------------------------------------------------------- 
     |                   =====================                   |
     |                        A N C O P T                        |
     |                   =====================                   |
     |               Approximate Normal Coordinate               |
     |                Rational Function Optimizer                |
      ----------------------------------------------------------- 
      ----------------------------------------------------------- 
     |                   =====================                   |
     |                        A N C O P T                        |
     |                   =====================                   |
     |               Approximate Normal Coordinate               |
     |                Rational Function Optimizer                |
      ----------------------------------------------------------- 

          ...................................................
          :                      SETUP                      :
          :.................................................:
          :   optimization level           extreme          :
          :   max. optcycles                  5000          :
          :   ANC micro-cycles                  20          :
          :   degrees of freedom                72          :
          :.................................................:
          :   RF solver                   davidson          :
          :   write xtbopt.log                true          :
          :   linear?                        false          :
          :   energy convergence         0.5000000E-07 Eh   :
          :   grad. convergence          0.5000000E-04 Eh/α :
          :   maxmium RF displ.          1.0000000          :
          :   Hlow (freq-cutoff)         0.1000000E-01      :
          :   Hmax (freq-cutoff)         5.0000000          :
          :   S6 in model hess.         20.0000000          :
          ...................................................

generating ANC from model Hessian ...
Using Lindh-Hessian (1995)
 Shifting diagonal of input Hessian by   9.640399777063815E-003
 Lowest  eigenvalues of input Hessian
    0.000000    0.000000    0.000000    0.000000    0.000000    0.000000
    0.010000    0.010541    0.010761    0.011385    0.011743    0.012209
    0.015684    0.017640    0.018775    0.019746    0.021558    0.024078
 Highest eigenvalues
    1.347332    1.535273    1.562260    1.864381    1.966141    1.986051
 

........................................................................
.............................. CYCLE    1 ..............................
........................................................................

 iter      E             dE          RMSdq      gap      omega  full diag
   1    -32.0587530 -0.320588E+02  0.132E-06    3.37       0.0  T
   2    -32.0587530  0.355271E-13  0.809E-07    3.37   24227.3  T
   3    -32.0587530 -0.710543E-14  0.507E-07    3.37   38690.2  T
     SCC iter.                  ...        0 min,  0.073 sec
     gradient                   ...        0 min,  0.002 sec
 * total energy  :   -31.5439701 Eh     change       -0.2486900E-12 Eh
   gradient norm :     0.0447664 Eh/α   predicted     0.0000000E+00 (-100.00%)
   displ. norm   :     0.2989267 α      lambda       -0.7252532E-02
   maximum displ.:     0.1555008 α      in ANC's #8, #21, #43, ...

........................................................................
.............................. CYCLE    2 ..............................
........................................................................

 iter      E             dE          RMSdq      gap      omega  full diag
   1    -32.0635792 -0.320636E+02  0.396E-01    3.59       0.0  T
   2    -32.0637756 -0.196474E-03  0.185E-01    3.62       1.0  T
   3    -32.0637949 -0.193076E-04  0.597E-02    3.65       1.0  T
   4    -32.0637856  0.933139E-05  0.252E-02    3.65       1.0  T
   5    -32.0637996 -0.139831E-04  0.682E-03    3.65       2.9  T
   6    -32.0638001 -0.508546E-06  0.329E-03    3.65       6.0  T
   7    -32.0638001 -0.169649E-07  0.966E-04    3.65      20.3  T
   8    -32.0638001 -0.379908E-08  0.396E-04    3.65      49.6  T
   9    -32.0638001 -0.332648E-08  0.772E-05    3.65     253.9  T
  10    -32.0638001 -0.356692E-10  0.397E-05    3.65     494.2  T
  11    -32.0638001 -0.690648E-11  0.150E-05    3.65    1303.8  T
  12    -32.0638001 -0.228795E-11  0.370E-06    3.65    5302.6  T
  13    -32.0638001 -0.355271E-13  0.133E-06    3.65   14775.0  T
     SCC iter.                  ...        0 min,  0.075 sec
     gradient                   ...        0 min,  0.002 sec
 * total energy  :   -31.5479207 Eh     change       -0.3950542E-02 Eh
   gradient norm :     0.0140280 Eh/α   predicted    -0.3950502E-02 (  -0.00%)
   displ. norm   :     0.2700005 α      lambda       -0.1288210E-02
   maximum displ.:     0.1285363 α      in ANC's #6, #1, #4, ...

........................................................................
.............................. CYCLE    3 ..............................
........................................................................

 iter      E             dE          RMSdq      gap      omega  full diag
   1    -32.0665828 -0.320666E+02  0.966E-02    3.63       0.0  T
   2    -32.0665854 -0.258675E-05  0.537E-02    3.63       1.0  T
   3    -32.0665852  0.177503E-06  0.109E-02    3.62       1.8  T
   4    -32.0665855 -0.344909E-06  0.435E-03    3.62       4.5  T
   5    -32.0665858 -0.256909E-06  0.139E-03    3.62      14.1  T
   6    -32.0665858 -0.593082E-08  0.692E-04    3.62      28.3  T
   7    -32.0665858 -0.231493E-08  0.115E-04    3.62     169.9  T
   8    -32.0665858 -0.178154E-09  0.634E-05    3.62     309.2  T
   9    -32.0665858 -0.524949E-10  0.175E-05    3.62    1123.6  T
  10    -32.0665858 -0.288480E-11  0.743E-06    3.62    2639.3  T
  11    -32.0665858 -0.454747E-12  0.272E-06    3.62    7197.2  T
     SCC iter.                  ...        0 min,  0.075 sec
     gradient                   ...        0 min,  0.002 sec
 * total energy  :   -31.5488271 Eh     change       -0.9064207E-03 Eh
   gradient norm :     0.0078002 Eh/α   predicted    -0.6912601E-03 ( -23.74%)
   displ. norm   :     0.3079713 α      lambda       -0.7799570E-03
   maximum displ.:     0.1565226 α      in ANC's #5, #1, #8, ...

........................................................................
.............................. CYCLE    4 ..............................
........................................................................

 iter      E             dE          RMSdq      gap      omega  full diag
   1    -32.0674021 -0.320674E+02  0.928E-02    3.63       0.0  T
   2    -32.0674033 -0.118682E-05  0.529E-02    3.63       1.0  T
   3    -32.0674031  0.224662E-06  0.757E-03    3.63       2.6  T
   4    -32.0674034 -0.315549E-06  0.360E-03    3.63       5.4  T
   5    -32.0674035 -0.163185E-06  0.117E-03    3.63      16.8  T
   6    -32.0674036 -0.365194E-08  0.681E-04    3.63      28.8  T
   7    -32.0674036 -0.399770E-08  0.140E-04    3.63     139.8  T
   8    -32.0674036 -0.171056E-09  0.509E-05    3.63     385.1  T
   9    -32.0674036 -0.260130E-10  0.188E-05    3.63    1045.7  T
  10    -32.0674036 -0.186873E-11  0.779E-06    3.63    2518.1  T
  11    -32.0674036 -0.220268E-12  0.343E-06    3.63    5720.7  T
     SCC iter.                  ...        0 min,  0.075 sec
     gradient                   ...        0 min,  0.002 sec
 * total energy  :   -31.5493741 Eh     change       -0.5469735E-03 Eh
   gradient norm :     0.0067829 Eh/α   predicted    -0.4269768E-03 ( -21.94%)
   displ. norm   :     0.3035404 α      lambda       -0.4861122E-03
   maximum displ.:     0.1863420 α      in ANC's #5, #1, #8, ...

........................................................................
.............................. CYCLE    5 ..............................
........................................................................

 iter      E             dE          RMSdq      gap      omega  full diag
   1    -32.0677359 -0.320677E+02  0.818E-02    3.63       0.0  T
   2    -32.0677367 -0.767908E-06  0.479E-02    3.63       1.0  T
   3    -32.0677363  0.387363E-06  0.494E-03    3.62       4.0  T
   4    -32.0677367 -0.411218E-06  0.303E-03    3.63       6.5  T
   5    -32.0677368 -0.167894E-06  0.907E-04    3.63      21.6  T
   6    -32.0677368 -0.202220E-09  0.318E-04    3.63      61.6  T
   7    -32.0677368 -0.308688E-09  0.116E-04    3.63     169.5  T
   8    -32.0677368 -0.155197E-09  0.331E-05    3.63     592.7  T
   9    -32.0677368 -0.577671E-11  0.157E-05    3.63    1252.6  T
  10    -32.0677368 -0.101608E-11  0.503E-06    3.63    3896.8  T
  11    -32.0677368 -0.142109E-12  0.201E-06    3.63    9771.2  T
     SCC iter.                  ...        0 min,  0.075 sec
     gradient                   ...        0 min,  0.002 sec
 * total energy  :   -31.5497606 Eh     change       -0.3865697E-03 Eh
   gradient norm :     0.0073020 Eh/α   predicted    -0.2654641E-03 ( -31.33%)
   displ. norm   :     0.3736588 α      lambda       -0.5658057E-03
   maximum displ.:     0.2412837 α      in ANC's #5, #1, #2, ...

........................................................................
.............................. CYCLE    6 ..............................
........................................................................

 iter      E             dE          RMSdq      gap      omega  full diag
   1    -32.0682092 -0.320682E+02  0.979E-02    3.63       0.0  T
   2    -32.0682103 -0.105672E-05  0.576E-02    3.63       1.0  T
   3    -32.0682099  0.401113E-06  0.540E-03    3.62       3.6  T
   4    -32.0682104 -0.561357E-06  0.269E-03    3.62       7.3  T
   5    -32.0682105 -0.845737E-07  0.122E-03    3.62      16.1  T
   6    -32.0682105 -0.137561E-08  0.408E-04    3.62      48.0  T
   7    -32.0682105 -0.727482E-09  0.127E-04    3.62     154.9  T
   8    -32.0682105 -0.957243E-10  0.467E-05    3.62     419.7  T
   9    -32.0682105 -0.198455E-10  0.192E-05    3.62    1023.7  T
  10    -32.0682105 -0.167688E-11  0.707E-06    3.62    2774.1  T
  11    -32.0682105 -0.234479E-12  0.269E-06    3.62    7281.5  T
     SCC iter.                  ...        0 min,  0.081 sec
     gradient                   ...        0 min,  0.002 sec
 * total energy  :   -31.5502373 Eh     change       -0.4766856E-03 Eh
   gradient norm :     0.0065355 Eh/α   predicted    -0.3224255E-03 ( -32.36%)
   displ. norm   :     0.5181925 α      lambda       -0.7777254E-03
   maximum displ.:     0.3398814 α      in ANC's #5, #1, #2, ...

........................................................................
.............................. CYCLE    7 ..............................
........................................................................

 iter      E             dE          RMSdq      gap      omega  full diag
   1    -32.0678677 -0.320679E+02  0.141E-01    3.62       0.0  T
   2    -32.0678700 -0.230993E-05  0.827E-02    3.63       1.0  T
   3    -32.0678697  0.281695E-06  0.866E-03    3.62       2.3  T
   4    -32.0678704 -0.683956E-06  0.273E-03    3.63       7.2  T
   5    -32.0678704 -0.450482E-08  0.128E-03    3.63      15.4  T
   6    -32.0678704 -0.131603E-07  0.589E-04    3.63      33.3  T
   7    -32.0678704 -0.424630E-08  0.135E-04    3.63     145.7  T
   8    -32.0678704 -0.100485E-09  0.519E-05    3.63     377.6  T
   9    -32.0678704 -0.187796E-10  0.237E-05    3.63     827.9  T
  10    -32.0678704 -0.269296E-11  0.677E-06    3.63    2898.2  T
  11    -32.0678704 -0.355271E-12  0.309E-06    3.63    6353.4  T
     SCC iter.                  ...        0 min,  0.078 sec
     gradient                   ...        0 min,  0.002 sec
 * total energy  :   -31.5508815 Eh     change       -0.6441327E-03 Eh
   gradient norm :     0.0076868 Eh/α   predicted    -0.4932825E-03 ( -23.42%)
   displ. norm   :     0.5839020 α      lambda       -0.9282063E-03
   maximum displ.:     0.3765990 α      in ANC's #5, #1, #6, ...

........................................................................
.............................. CYCLE    8 ..............................
........................................................................

 iter      E             dE          RMSdq      gap      omega  full diag
   1    -32.0681512 -0.320682E+02  0.166E-01    3.62       0.0  T
   2    -32.0681544 -0.322859E-05  0.961E-02    3.63       1.0  T
   3    -32.0681538  0.594121E-06  0.139E-02    3.62       1.4  T
   4    -32.0681549 -0.112712E-05  0.336E-03    3.62       5.8  T
   5    -32.0681550 -0.613003E-07  0.165E-03    3.63      11.9  T
   6    -32.0681550 -0.330512E-07  0.731E-04    3.62      26.8  T
   7    -32.0681550 -0.208049E-08  0.179E-04    3.62     109.5  T
   8    -32.0681550 -0.263469E-09  0.535E-05    3.62     366.7  T
   9    -32.0681550 -0.218847E-10  0.251E-05    3.62     782.2  T
  10    -32.0681550 -0.414246E-11  0.111E-05    3.62    1761.8  T
  11    -32.0681550 -0.159162E-11  0.297E-06    3.62    6593.4  T
  12    -32.0681550  0.710543E-14  0.122E-06    3.62   16092.6  T
     SCC iter.                  ...        0 min,  0.075 sec
     gradient                   ...        0 min,  0.002 sec
 * total energy  :   -31.5516058 Eh     change       -0.7243873E-03 Eh
   gradient norm :     0.0119223 Eh/α   predicted    -0.6223366E-03 ( -14.09%)
   displ. norm   :     0.5159038 α      lambda       -0.8229641E-03
   maximum displ.:     0.3345132 α      in ANC's #5, #6, #1, ...

........................................................................
.............................. CYCLE    9 ..............................
........................................................................

 iter      E             dE          RMSdq      gap      omega  full diag
   1    -32.0685540 -0.320686E+02  0.151E-01    3.63       0.0  T
   2    -32.0685560 -0.199426E-05  0.878E-02    3.63       1.0  T
   3    -32.0685544  0.161339E-05  0.116E-02    3.63       1.7  T
   4    -32.0685563 -0.193857E-05  0.388E-03    3.63       5.1  T
   5    -32.0685565 -0.220824E-06  0.132E-03    3.63      14.8  T
   6    -32.0685565 -0.160017E-07  0.549E-04    3.63      35.8  T
   7    -32.0685565 -0.701114E-09  0.159E-04    3.63     123.5  T
   8    -32.0685565 -0.402537E-09  0.606E-05    3.63     323.5  T
   9    -32.0685565 -0.545555E-10  0.200E-05    3.63     982.8  T
  10    -32.0685565 -0.150635E-11  0.679E-06    3.63    2886.7  T
  11    -32.0685565 -0.106581E-12  0.290E-06    3.63    6759.4  T
     SCC iter.                  ...        0 min,  0.075 sec
     gradient                   ...        0 min,  0.002 sec
 * total energy  :   -31.5522557 Eh     change       -0.6498057E-03 Eh
   gradient norm :     0.0132417 Eh/α   predicted    -0.5210048E-03 ( -19.82%)
   displ. norm   :     0.4707991 α      lambda       -0.8715871E-03
   maximum displ.:     0.2743578 α      in ANC's #5, #6, #4, ...

........................................................................
.............................. CYCLE   10 ..............................
........................................................................

 iter      E             dE          RMSdq      gap      omega  full diag
   1    -32.0735938 -0.320736E+02  0.143E-01    3.63       0.0  T
   2    -32.0735982 -0.436544E-05  0.813E-02    3.63       1.0  T
   3    -32.0735973  0.821361E-06  0.175E-02    3.64       1.1  T
   4    -32.0735987 -0.132333E-05  0.459E-03    3.64       4.3  T
   5    -32.0735988 -0.107337E-06  0.253E-03    3.64       7.7  T
   6    -32.0735989 -0.990604E-07  0.971E-04    3.64      20.2  T
   7    -32.0735989 -0.163025E-08  0.193E-04    3.64     101.8  T
   8    -32.0735989 -0.315055E-09  0.662E-05    3.64     296.3  T
   9    -32.0735989 -0.484732E-10  0.362E-05    3.64     541.4  T
  10    -32.0735989 -0.633804E-11  0.149E-05    3.64    1318.2  T
  11    -32.0735989 -0.909495E-12  0.379E-06    3.64    5169.2  T
  12    -32.0735989 -0.710543E-13  0.154E-06    3.64   12766.7  T
     SCC iter.                  ...        0 min,  0.075 sec
     gradient                   ...        0 min,  0.002 sec
 * total energy  :   -31.5528029 Eh     change       -0.5472213E-03 Eh
   gradient norm :     0.0109746 Eh/α   predicted    -0.5323899E-03 (  -2.71%)
   displ. norm   :     0.6839245 α      lambda       -0.1059475E-02
   maximum displ.:     0.4970791 α      in ANC's #5, #1, #2, ...

........................................................................
.............................. CYCLE   11 ..............................
........................................................................

 iter      E             dE          RMSdq      gap      omega  full diag
   1    -32.0624691 -0.320625E+02  0.212E-01    3.64       0.0  T
   2    -32.0624839 -0.148055E-04  0.121E-01    3.65       1.0  T
   3    -32.0624809  0.297559E-05  0.384E-02    3.65       1.0  T
   4    -32.0624861 -0.522039E-05  0.849E-03    3.65       2.3  T
   5    -32.0624860  0.117689E-06  0.643E-03    3.65       3.1  T
   6    -32.0624864 -0.422399E-06  0.196E-03    3.65      10.0  T
   7    -32.0624864 -0.101347E-07  0.512E-04    3.65      38.3  T
   8    -32.0624864 -0.128388E-09  0.135E-04    3.65     145.6  T
   9    -32.0624864 -0.124388E-09  0.687E-05    3.65     285.4  T
  10    -32.0624864 -0.186446E-10  0.228E-05    3.65     860.0  T
  11    -32.0624864 -0.346034E-11  0.762E-06    3.65    2574.0  T
  12    -32.0624864 -0.632383E-12  0.212E-06    3.65    9257.6  T
     SCC iter.                  ...        0 min,  0.075 sec
     gradient                   ...        0 min,  0.002 sec
 * total energy  :   -31.5528333 Eh     change       -0.3047224E-04 Eh
   gradient norm :     0.0182734 Eh/α   predicted    -0.7775242E-03 (2451.58%)
   displ. norm   :     0.2104979 α      lambda       -0.1092120E-02
   maximum displ.:     0.1441091 α      in ANC's #5, #1, #3, ...

........................................................................
.............................. CYCLE   12 ..............................
........................................................................

 iter      E             dE          RMSdq      gap      omega  full diag
   1    -32.0727754 -0.320728E+02  0.800E-02    3.65       0.0  T
   2    -32.0727840 -0.859048E-05  0.445E-02    3.65       1.0  T
   3    -32.0727838  0.170906E-06  0.205E-02    3.65       1.0  T
   4    -32.0727848 -0.934541E-06  0.556E-03    3.65       3.5  T
   5    -32.0727848 -0.553595E-08  0.422E-03    3.65       4.6  T
   6    -32.0727849 -0.146961E-06  0.102E-03    3.65      19.1  T
   7    -32.0727849 -0.470337E-08  0.256E-04    3.65      76.7  T
   8    -32.0727849 -0.144134E-09  0.104E-04    3.65     188.9  T
   9    -32.0727849 -0.826716E-10  0.428E-05    3.65     458.1  T
  10    -32.0727849 -0.133156E-10  0.197E-05    3.65     994.3  T
  11    -32.0727849 -0.159872E-11  0.599E-06    3.65    3274.1  T
  12    -32.0727849 -0.248690E-12  0.135E-06    3.65   14547.3  T
     SCC iter.                  ...        0 min,  0.074 sec
     gradient                   ...        0 min,  0.002 sec
 * total energy  :   -31.5533547 Eh     change       -0.5213783E-03 Eh
   gradient norm :     0.0068609 Eh/α   predicted    -0.5702571E-03 (   9.37%)
   displ. norm   :     0.2414970 α      lambda       -0.4130059E-03
   maximum displ.:     0.1381502 α      in ANC's #6, #5, #2, ...

........................................................................
.............................. CYCLE   13 ..............................
........................................................................

 iter      E             dE          RMSdq      gap      omega  full diag
   1    -32.0718233 -0.320718E+02  0.912E-02    3.64       0.0  T
   2    -32.0718305 -0.718721E-05  0.462E-02    3.64       1.0  T
   3    -32.0718308 -0.298796E-06  0.267E-02    3.64       1.0  T
   4    -32.0718318 -0.101001E-05  0.434E-03    3.64       4.5  T
   5    -32.0718318  0.234685E-07  0.244E-03    3.64       8.0  T
   6    -32.0718318 -0.838513E-07  0.114E-03    3.64      17.2  T
   7    -32.0718318 -0.395459E-08  0.249E-04    3.64      78.8  T
   8    -32.0718318 -0.370655E-09  0.835E-05    3.64     234.9  T
   9    -32.0718318 -0.658673E-11  0.369E-05    3.64     532.2  T
  10    -32.0718318 -0.183249E-10  0.129E-05    3.64    1518.4  T
  11    -32.0718318 -0.710543E-12  0.392E-06    3.64    5001.6  T
  12    -32.0718318 -0.781597E-13  0.160E-06    3.64   12261.4  T
     SCC iter.                  ...        0 min,  0.074 sec
     gradient                   ...        0 min,  0.002 sec
 * total energy  :   -31.5533981 Eh     change       -0.4335132E-04 Eh
   gradient norm :     0.0117459 Eh/α   predicted    -0.2185472E-03 ( 404.13%)
   displ. norm   :     0.1204900 α      lambda       -0.3630420E-03
   maximum displ.:     0.0765670 α      in ANC's #5, #2, #4, ...

........................................................................
.............................. CYCLE   14 ..............................
........................................................................

 iter      E             dE          RMSdq      gap      omega  full diag
   1    -32.0726419 -0.320726E+02  0.564E-02    3.64       0.0  T
   2    -32.0726439 -0.203700E-05  0.273E-02    3.64       1.0  T
   3    -32.0726440 -0.428734E-07  0.161E-02    3.64       1.2  T
   4    -32.0726443 -0.334350E-06  0.213E-03    3.64       9.2  T
   5    -32.0726443  0.353278E-08  0.141E-03    3.64      14.0  T
   6    -32.0726443 -0.132769E-07  0.660E-04    3.64      29.7  T
   7    -32.0726443 -0.226098E-08  0.141E-04    3.64     139.1  T
   8    -32.0726443 -0.640910E-10  0.405E-05    3.64     483.7  T
   9    -32.0726443 -0.951417E-11  0.219E-05    3.64     897.0  T
  10    -32.0726443 -0.319034E-11  0.501E-06    3.64    3916.3  T
  11    -32.0726443 -0.234479E-12  0.198E-06    3.64    9922.7  T
     SCC iter.                  ...        0 min,  0.074 sec
     gradient                   ...        0 min,  0.002 sec
 * total energy  :   -31.5536419 Eh     change       -0.2437755E-03 Eh
   gradient norm :     0.0037928 Eh/α   predicted    -0.1841567E-03 ( -24.46%)
   displ. norm   :     0.3129764 α      lambda       -0.2454186E-03
   maximum displ.:     0.1897651 α      in ANC's #5, #2, #1, ...

........................................................................
.............................. CYCLE   15 ..............................
........................................................................

 iter      E             dE          RMSdq      gap      omega  full diag
   1    -32.0710627 -0.320711E+02  0.899E-02    3.65       0.0  T
   2    -32.0710636 -0.927572E-06  0.522E-02    3.65       1.0  T
   3    -32.0710637 -0.575845E-07  0.580E-03    3.65       3.4  T
   4    -32.0710638 -0.135438E-06  0.160E-03    3.65      12.3  T
   5    -32.0710638 -0.229497E-08  0.831E-04    3.65      23.6  T
   6    -32.0710638 -0.250959E-08  0.344E-04    3.65      57.0  T
   7    -32.0710638 -0.125070E-08  0.138E-04    3.65     142.2  T
   8    -32.0710638 -0.191982E-09  0.311E-05    3.65     630.3  T
   9    -32.0710638 -0.432010E-11  0.136E-05    3.65    1442.2  T
  10    -32.0710638 -0.127898E-11  0.507E-06    3.65    3869.4  T
  11    -32.0710638 -0.142109E-12  0.217E-06    3.65    9029.2  T
     SCC iter.                  ...        0 min,  0.074 sec
     gradient                   ...        0 min,  0.002 sec
 * total energy  :   -31.5537958 Eh     change       -0.1539289E-03 Eh
   gradient norm :     0.0062347 Eh/α   predicted    -0.1347311E-03 ( -12.47%)
   displ. norm   :     0.3300372 α      lambda       -0.2714403E-03
   maximum displ.:     0.1708382 α      in ANC's #5, #2, #3, ...

........................................................................
.............................. CYCLE   16 ..............................
........................................................................

 iter      E             dE          RMSdq      gap      omega  full diag
   1    -32.0718647 -0.320719E+02  0.932E-02    3.66       0.0  T
   2    -32.0718657 -0.978695E-06  0.540E-02    3.66       1.0  T
   3    -32.0718658 -0.570049E-07  0.565E-03    3.66       3.5  T
   4    -32.0718659 -0.911136E-07  0.153E-03    3.66      12.8  T
   5    -32.0718659 -0.438021E-08  0.901E-04    3.66      21.8  T
   6    -32.0718659 -0.713874E-08  0.360E-04    3.66      54.4  T
   7    -32.0718659 -0.650090E-09  0.108E-04    3.66     182.4  T
   8    -32.0718659 -0.926761E-10  0.268E-05    3.66     731.9  T
   9    -32.0718659 -0.471090E-11  0.172E-05    3.66    1139.3  T
  10    -32.0718659 -0.231637E-11  0.630E-06    3.66    3112.0  T
  11    -32.0718659 -0.127898E-12  0.170E-06    3.66   11503.6  T
     SCC iter.                  ...        0 min,  0.073 sec
     gradient                   ...        0 min,  0.002 sec
 * total energy  :   -31.5539741 Eh     change       -0.1783294E-03 Eh
   gradient norm :     0.0075702 Eh/α   predicted    -0.1505056E-03 ( -15.60%)
   displ. norm   :     0.3465315 α      lambda       -0.2737097E-03
   maximum displ.:     0.1812351 α      in ANC's #3, #2, #5, ...

........................................................................
.............................. CYCLE   17 ..............................
........................................................................

 iter      E             dE          RMSdq      gap      omega  full diag
   1    -32.0729322 -0.320729E+02  0.871E-02    3.66       0.0  T
   2    -32.0729333 -0.102897E-05  0.512E-02    3.66       1.0  T
   3    -32.0729331  0.197027E-06  0.897E-03    3.66       2.2  T
   4    -32.0729334 -0.373731E-06  0.164E-03    3.66      11.9  T
   5    -32.0729334 -0.216357E-08  0.109E-03    3.66      18.0  T
   6    -32.0729335 -0.136003E-07  0.488E-04    3.66      40.2  T
   7    -32.0729335 -0.881030E-09  0.102E-04    3.66     192.4  T
   8    -32.0729335 -0.300062E-10  0.294E-05    3.66     668.0  T
   9    -32.0729335 -0.132161E-11  0.159E-05    3.66    1232.8  T
  10    -32.0729335 -0.973444E-12  0.406E-06    3.66    4829.5  T
  11    -32.0729335 -0.120792E-12  0.170E-06    3.66   11514.3  T
     SCC iter.                  ...        0 min,  0.074 sec
     gradient                   ...        0 min,  0.002 sec
 * total energy  :   -31.5541919 Eh     change       -0.2177415E-03 Eh
   gradient norm :     0.0065902 Eh/α   predicted    -0.1532898E-03 ( -29.60%)
   displ. norm   :     0.4078568 α      lambda       -0.3375137E-03
   maximum displ.:     0.2353396 α      in ANC's #3, #2, #1, ...

........................................................................
.............................. CYCLE   18 ..............................
........................................................................

 iter      E             dE          RMSdq      gap      omega  full diag
   1    -32.0752087 -0.320752E+02  0.101E-01    3.66       0.0  T
   2    -32.0752101 -0.140132E-05  0.589E-02    3.66       1.0  T
   3    -32.0752099  0.146220E-06  0.874E-03    3.66       2.2  T
   4    -32.0752103 -0.368173E-06  0.212E-03    3.66       9.3  T
   5    -32.0752103 -0.253214E-07  0.960E-04    3.66      20.4  T
   6    -32.0752103 -0.135197E-07  0.431E-04    3.66      45.6  T
   7    -32.0752104 -0.608004E-09  0.105E-04    3.66     186.6  T
   8    -32.0752104 -0.514575E-10  0.338E-05    3.66     579.5  T
   9    -32.0752104 -0.859757E-11  0.176E-05    3.66    1113.4  T
  10    -32.0752104 -0.226663E-11  0.616E-06    3.66    3182.8  T
  11    -32.0752104 -0.106581E-12  0.310E-06    3.66    6335.2  T
     SCC iter.                  ...        0 min,  0.073 sec
     gradient                   ...        0 min,  0.002 sec
 * total energy  :   -31.5544326 Eh     change       -0.2407551E-03 Eh
   gradient norm :     0.0056365 Eh/α   predicted    -0.1968348E-03 ( -18.24%)
   displ. norm   :     0.5218420 α      lambda       -0.2686194E-03
   maximum displ.:     0.2638640 α      in ANC's #3, #2, #5, ...

........................................................................
.............................. CYCLE   19 ..............................
........................................................................

 iter      E             dE          RMSdq      gap      omega  full diag
   1    -32.0703224 -0.320703E+02  0.135E-01    3.66       0.0  T
   2    -32.0703268 -0.435963E-05  0.788E-02    3.66       1.0  T
   3    -32.0703268  0.659267E-08  0.113E-02    3.66       1.7  T
   4    -32.0703272 -0.416340E-06  0.273E-03    3.66       7.2  T
   5    -32.0703272 -0.342313E-07  0.156E-03    3.66      12.6  T
   6    -32.0703272 -0.157574E-07  0.654E-04    3.66      30.0  T
   7    -32.0703273 -0.362133E-08  0.244E-04    3.66      80.4  T
   8    -32.0703273 -0.162089E-09  0.685E-05    3.66     286.5  T
   9    -32.0703273 -0.185310E-10  0.325E-05    3.66     603.6  T
  10    -32.0703273 -0.586198E-11  0.111E-05    3.66    1768.7  T
  11    -32.0703273 -0.125766E-11  0.325E-06    3.66    6036.5  T
  12    -32.0703273 -0.568434E-13  0.122E-06    3.66   16019.6  T
     SCC iter.                  ...        0 min,  0.075 sec
     gradient                   ...        0 min,  0.007 sec
 * total energy  :   -31.5545220 Eh     change       -0.8942006E-04 Eh
   gradient norm :     0.0114583 Eh/α   predicted    -0.1708880E-03 (  91.11%)
   displ. norm   :     0.2009306 α      lambda       -0.4614667E-03
   maximum displ.:     0.1233947 α      in ANC's #3, #1, #4, ...

........................................................................
.............................. CYCLE   20 ..............................
........................................................................

 iter      E             dE          RMSdq      gap      omega  full diag
   1    -32.0762580 -0.320763E+02  0.628E-02    3.66       0.0  T
   2    -32.0762606 -0.259885E-05  0.361E-02    3.66       1.0  T
   3    -32.0762606 -0.266448E-07  0.105E-02    3.66       1.9  T
   4    -32.0762609 -0.292032E-06  0.302E-03    3.66       6.5  T
   5    -32.0762609  0.300452E-08  0.177E-03    3.66      11.1  T
   6    -32.0762609 -0.551682E-08  0.392E-04    3.66      50.0  T
   7    -32.0762609 -0.339547E-08  0.138E-04    3.66     142.3  T
   8    -32.0762609 -0.491909E-10  0.490E-05    3.66     399.9  T
   9    -32.0762609 -0.164135E-10  0.213E-05    3.66     921.2  T
  10    -32.0762609 -0.335376E-11  0.101E-05    3.66    1951.1  T
  11    -32.0762609 -0.454747E-12  0.360E-06    3.66    5453.3  T
  12    -32.0762609 -0.127898E-12  0.122E-06    3.66   16101.5  T
     SCC iter.                  ...        0 min,  0.074 sec
     gradient                   ...        0 min,  0.002 sec
 * total energy  :   -31.5547561 Eh     change       -0.2340429E-03 Eh
   gradient norm :     0.0058122 Eh/α   predicted    -0.2400497E-03 (   2.57%)
   displ. norm   :     0.3069720 α      lambda       -0.1691310E-03
   maximum displ.:     0.1597311 α      in ANC's #3, #5, #2, ...
 * RMSD in coord.:     1.1005346 α      energy gain  -0.1078593E-01 Eh

generating ANC from model Hessian ...
Using Lindh-Hessian (1995)
 Shifting diagonal of input Hessian by   9.160001654942148E-003
 Lowest  eigenvalues of input Hessian
    0.000000    0.000000    0.000000    0.000000    0.000000    0.000000
    0.010000    0.010070    0.010704    0.010974    0.011588    0.012394
    0.015137    0.017210    0.018112    0.018678    0.021223    0.024136
 Highest eigenvalues
    1.362108    1.552542    1.572177    1.881000    1.985529    2.003786
 

........................................................................
.............................. CYCLE   21 ..............................
........................................................................

 iter      E             dE          RMSdq      gap      omega  full diag
   1    -32.0739296 -0.320739E+02  0.801E-02    3.67       0.0  T
   2    -32.0739307 -0.102996E-05  0.466E-02    3.67       1.0  T
   3    -32.0739305  0.139105E-06  0.796E-03    3.67       2.5  T
   4    -32.0739309 -0.331004E-06  0.165E-03    3.67      11.9  T
   5    -32.0739309 -0.336116E-08  0.670E-04    3.67      29.3  T
   6    -32.0739309 -0.509374E-09  0.321E-04    3.67      61.0  T
   7    -32.0739309 -0.383409E-10  0.138E-04    3.67     141.8  T
   8    -32.0739309 -0.252172E-09  0.363E-05    3.67     540.2  T
   9    -32.0739309 -0.540723E-11  0.138E-05    3.67    1425.8  T
  10    -32.0739309 -0.440536E-12  0.345E-06    3.67    5685.1  T
  11    -32.0739309 -0.994760E-13  0.215E-06    3.67    9131.2  T
     SCC iter.                  ...        0 min,  0.073 sec
     gradient                   ...        0 min,  0.002 sec
 * total energy  :   -31.5548715 Eh     change       -0.1153809E-03 Eh
   gradient norm :     0.0073770 Eh/α   predicted     0.0000000E+00 (-100.00%)
   displ. norm   :     0.1031663 α      lambda       -0.2373245E-03
   maximum displ.:     0.0615286 α      in ANC's #5, #3, #6, ...

........................................................................
.............................. CYCLE   22 ..............................
........................................................................

 iter      E             dE          RMSdq      gap      omega  full diag
   1    -32.0753389 -0.320753E+02  0.337E-02    3.66       0.0  T
   2    -32.0753395 -0.613516E-06  0.189E-02    3.66       1.0  T
   3    -32.0753395  0.183778E-07  0.639E-03    3.66       3.1  T
   4    -32.0753396 -0.104207E-06  0.145E-03    3.66      13.5  T
   5    -32.0753396 -0.449965E-08  0.733E-04    3.66      26.7  T
   6    -32.0753396 -0.873890E-08  0.362E-04    3.66      54.2  T
   7    -32.0753396 -0.515300E-09  0.105E-04    3.66     187.1  T
   8    -32.0753396 -0.137490E-10  0.348E-05    3.66     564.3  T
   9    -32.0753396 -0.101750E-10  0.125E-05    3.66    1568.8  T
  10    -32.0753396 -0.119371E-11  0.402E-06    3.66    4879.0  T
  11    -32.0753396 -0.710543E-14  0.170E-06    3.66   11537.2  T
     SCC iter.                  ...        0 min,  0.074 sec
     gradient                   ...        0 min,  0.002 sec
 * total energy  :   -31.5550607 Eh     change       -0.1892685E-03 Eh
   gradient norm :     0.0027775 Eh/α   predicted    -0.1206810E-03 ( -36.24%)
   displ. norm   :     0.2413424 α      lambda       -0.3067661E-03
   maximum displ.:     0.1437411 α      in ANC's #3, #5, #6, ...

........................................................................
.............................. CYCLE   23 ..............................
........................................................................

 iter      E             dE          RMSdq      gap      omega  full diag
   1    -32.0758791 -0.320759E+02  0.610E-02    3.66       0.0  T
   2    -32.0758802 -0.102072E-05  0.349E-02    3.66       1.0  T
   3    -32.0758802  0.105482E-07  0.612E-03    3.66       3.2  T
   4    -32.0758802 -0.940342E-07  0.238E-03    3.66       8.2  T
   5    -32.0758803 -0.635525E-07  0.763E-04    3.66      25.7  T
   6    -32.0758803 -0.659539E-08  0.426E-04    3.66      46.1  T
   7    -32.0758803 -0.848232E-09  0.112E-04    3.66     174.5  T
   8    -32.0758803 -0.191285E-09  0.343E-05    3.66     572.2  T
   9    -32.0758803 -0.103952E-10  0.122E-05    3.66    1601.9  T
  10    -32.0758803 -0.166978E-11  0.504E-06    3.66    3894.9  T
  11    -32.0758803 -0.213163E-12  0.235E-06    3.66    8359.8  T
     SCC iter.                  ...        0 min,  0.074 sec
     gradient                   ...        0 min,  0.002 sec
 * total energy  :   -31.5552772 Eh     change       -0.2165302E-03 Eh
   gradient norm :     0.0034839 Eh/α   predicted    -0.1623268E-03 ( -25.03%)
   displ. norm   :     0.2223854 α      lambda       -0.1652829E-03
   maximum displ.:     0.1503307 α      in ANC's #3, #5, #2, ...

........................................................................
.............................. CYCLE   24 ..............................
........................................................................

 iter      E             dE          RMSdq      gap      omega  full diag
   1    -32.0753891 -0.320754E+02  0.546E-02    3.66       0.0  T
   2    -32.0753895 -0.426044E-06  0.306E-02    3.66       1.0  T
   3    -32.0753895  0.173957E-07  0.560E-03    3.66       3.5  T
   4    -32.0753896 -0.843098E-07  0.145E-03    3.66      13.5  T
   5    -32.0753896 -0.100350E-07  0.543E-04    3.66      36.1  T
   6    -32.0753896 -0.160719E-08  0.293E-04    3.66      67.0  T
   7    -32.0753896 -0.505644E-09  0.385E-05    3.66     508.8  T
   8    -32.0753896 -0.471090E-11  0.261E-05    3.66     751.7  T
   9    -32.0753896 -0.111697E-10  0.919E-06    3.66    2133.1  T
  10    -32.0753896 -0.113687E-12  0.269E-06    3.66    7287.2  T
     SCC iter.                  ...        0 min,  0.080 sec
     gradient                   ...        0 min,  0.002 sec
 * total energy  :   -31.5554097 Eh     change       -0.1324185E-03 Eh
   gradient norm :     0.0040892 Eh/α   predicted    -0.8673042E-04 ( -34.50%)
   displ. norm   :     0.2018228 α      lambda       -0.1366076E-03
   maximum displ.:     0.1437817 α      in ANC's #3, #5, #2, ...

........................................................................
.............................. CYCLE   25 ..............................
........................................................................

 iter      E             dE          RMSdq      gap      omega  full diag
   1    -32.0750907 -0.320751E+02  0.526E-02    3.66       0.0  T
   2    -32.0750910 -0.302701E-06  0.288E-02    3.66       1.0  T
   3    -32.0750909  0.685833E-07  0.638E-03    3.66       3.1  T
   4    -32.0750910 -0.136866E-06  0.118E-03    3.66      16.6  T
   5    -32.0750911 -0.248210E-08  0.589E-04    3.66      33.3  T
   6    -32.0750911 -0.383412E-08  0.243E-04    3.66      80.6  T
   7    -32.0750911 -0.232042E-09  0.377E-05    3.66     519.6  T
   8    -32.0750911 -0.159446E-10  0.210E-05    3.66     932.2  T
   9    -32.0750911 -0.418510E-11  0.777E-06    3.66    2522.6  T
  10    -32.0750911 -0.248690E-12  0.250E-06    3.66    7839.6  T
     SCC iter.                  ...        0 min,  0.073 sec
     gradient                   ...        0 min,  0.002 sec
 * total energy  :   -31.5555224 Eh     change       -0.1127695E-03 Eh
   gradient norm :     0.0027914 Eh/α   predicted    -0.7108902E-04 ( -36.96%)
   displ. norm   :     0.1805098 α      lambda       -0.1164595E-03
   maximum displ.:     0.1361838 α      in ANC's #3, #2, #5, ...

........................................................................
.............................. CYCLE   26 ..............................
........................................................................

 iter      E             dE          RMSdq      gap      omega  full diag
   1    -32.0753831 -0.320754E+02  0.434E-02    3.66       0.0  T
   2    -32.0753833 -0.197054E-06  0.246E-02    3.66       1.0  T
   3    -32.0753833  0.424308E-07  0.385E-03    3.66       5.1  T
   4    -32.0753833 -0.823487E-07  0.119E-03    3.66      16.5  T
   5    -32.0753833 -0.896050E-08  0.588E-04    3.66      33.3  T
   6    -32.0753833 -0.222795E-08  0.259E-04    3.66      75.8  T
   7    -32.0753833 -0.139870E-09  0.468E-05    3.66     419.2  T
   8    -32.0753833 -0.226592E-10  0.181E-05    3.66    1082.8  T
   9    -32.0753833 -0.256506E-11  0.821E-06    3.66    2387.9  T
  10    -32.0753833 -0.277112E-12  0.343E-06    3.66    5716.5  T
     SCC iter.                  ...        0 min,  0.074 sec
     gradient                   ...        0 min,  0.002 sec
 * total energy  :   -31.5556194 Eh     change       -0.9699434E-04 Eh
   gradient norm :     0.0020235 Eh/α   predicted    -0.6012781E-04 ( -38.01%)
   displ. norm   :     0.1859257 α      lambda       -0.1047690E-03
   maximum displ.:     0.1416334 α      in ANC's #3, #2, #1, ...

........................................................................
.............................. CYCLE   27 ..............................
........................................................................

 iter      E             dE          RMSdq      gap      omega  full diag
   1    -32.0757147 -0.320757E+02  0.406E-02    3.66       0.0  T
   2    -32.0757148 -0.104690E-06  0.237E-02    3.66       1.0  T
   3    -32.0757148  0.373421E-08  0.188E-03    3.66      10.4  T
   4    -32.0757148 -0.346516E-07  0.826E-04    3.66      23.7  T
   5    -32.0757148 -0.100471E-08  0.294E-04    3.66      66.8  T
   6    -32.0757148 -0.871268E-09  0.910E-05    3.66     215.6  T
   7    -32.0757148 -0.324150E-10  0.374E-05    3.66     524.3  T
   8    -32.0757148 -0.881784E-11  0.132E-05    3.66    1491.2  T
   9    -32.0757148 -0.881073E-12  0.536E-06    3.66    3659.0  T
  10    -32.0757148 -0.127898E-12  0.192E-06    3.66   10223.7  T
     SCC iter.                  ...        0 min,  0.076 sec
     gradient                   ...        0 min,  0.002 sec
 * total energy  :   -31.5557099 Eh     change       -0.9049436E-04 Eh
   gradient norm :     0.0024781 Eh/α   predicted    -0.5419966E-04 ( -40.11%)
   displ. norm   :     0.2205767 α      lambda       -0.1124226E-03
   maximum displ.:     0.1656279 α      in ANC's #3, #2, #1, ...

........................................................................
.............................. CYCLE   28 ..............................
........................................................................

 iter      E             dE          RMSdq      gap      omega  full diag
   1    -32.0759670 -0.320760E+02  0.442E-02    3.66       0.0  T
   2    -32.0759672 -0.167241E-06  0.260E-02    3.66       1.0  T
   3    -32.0759672  0.283191E-07  0.217E-03    3.66       9.0  T
   4    -32.0759672 -0.612567E-07  0.847E-04    3.66      23.1  T
   5    -32.0759673 -0.716238E-08  0.447E-04    3.66      43.8  T
   6    -32.0759673 -0.252889E-08  0.155E-04    3.66     126.9  T
   7    -32.0759673 -0.992060E-10  0.459E-05    3.66     427.7  T
   8    -32.0759673 -0.219700E-10  0.181E-05    3.66    1086.2  T
   9    -32.0759673 -0.223110E-11  0.715E-06    3.66    2741.4  T
  10    -32.0759673 -0.170530E-12  0.257E-06    3.66    7643.1  T
     SCC iter.                  ...        0 min,  0.073 sec
     gradient                   ...        0 min,  0.002 sec
 * total energy  :   -31.5558069 Eh     change       -0.9701434E-04 Eh
   gradient norm :     0.0027769 Eh/α   predicted    -0.5894834E-04 ( -39.24%)
   displ. norm   :     0.2985155 α      lambda       -0.1288799E-03
   maximum displ.:     0.2208560 α      in ANC's #3, #2, #1, ...

........................................................................
.............................. CYCLE   29 ..............................
........................................................................

 iter      E             dE          RMSdq      gap      omega  full diag
   1    -32.0757307 -0.320757E+02  0.589E-02    3.67       0.0  T
   2    -32.0757311 -0.414601E-06  0.344E-02    3.67       1.0  T
   3    -32.0757310  0.114576E-06  0.359E-03    3.67       5.5  T
   4    -32.0757311 -0.120270E-06  0.178E-03    3.67      11.0  T
   5    -32.0757312 -0.748814E-07  0.566E-04    3.67      34.7  T
   6    -32.0757312 -0.230978E-08  0.229E-04    3.67      85.8  T
   7    -32.0757312 -0.748912E-10  0.676E-05    3.67     290.2  T
   8    -32.0757312 -0.216787E-10  0.258E-05    3.67     760.6  T
   9    -32.0757312 -0.637357E-11  0.101E-05    3.67    1936.9  T
  10    -32.0757312 -0.675016E-12  0.270E-06    3.67    7274.9  T
  11    -32.0757312 -0.568434E-13  0.127E-06    3.67   15444.4  T
     SCC iter.                  ...        0 min,  0.074 sec
     gradient                   ...        0 min,  0.002 sec
 * total energy  :   -31.5559083 Eh     change       -0.1013412E-03 Eh
   gradient norm :     0.0028408 Eh/α   predicted    -0.7018382E-04 ( -30.75%)
   displ. norm   :     0.3473348 α      lambda       -0.1066213E-03
   maximum displ.:     0.2547756 α      in ANC's #3, #2, #1, ...

........................................................................
.............................. CYCLE   30 ..............................
........................................................................

 iter      E             dE          RMSdq      gap      omega  full diag
   1    -32.0755142 -0.320755E+02  0.681E-02    3.67       0.0  T
   2    -32.0755148 -0.601483E-06  0.395E-02    3.67       1.0  T
   3    -32.0755146  0.196764E-06  0.458E-03    3.67       4.3  T
   4    -32.0755148 -0.127473E-06  0.262E-03    3.67       7.5  T
   5    -32.0755149 -0.182613E-06  0.601E-04    3.67      32.6  T
   6    -32.0755149 -0.696652E-09  0.263E-04    3.67      74.5  T
   7    -32.0755149 -0.471161E-10  0.684E-05    3.67     286.7  T
   8    -32.0755149 -0.459508E-10  0.277E-05    3.67     708.6  T
   9    -32.0755149 -0.676437E-11  0.122E-05    3.67    1603.3  T
  10    -32.0755149 -0.724754E-12  0.188E-06    3.67   10440.5  T
  11    -32.0755149  0.142109E-13  0.970E-07    3.67   20224.0  T
     SCC iter.                  ...        0 min,  0.074 sec
     gradient                   ...        0 min,  0.002 sec
 * total energy  :   -31.5559738 Eh     change       -0.6548078E-04 Eh
   gradient norm :     0.0027022 Eh/α   predicted    -0.5974506E-04 (  -8.76%)
   displ. norm   :     0.1019515 α      lambda       -0.3030388E-04
   maximum displ.:     0.0688877 α      in ANC's #3, #2, #1, ...

........................................................................
.............................. CYCLE   31 ..............................
........................................................................

 iter      E             dE          RMSdq      gap      omega  full diag
   1    -32.0766335 -0.320766E+02  0.245E-02    3.67       0.0  T
   2    -32.0766337 -0.168247E-06  0.138E-02    3.67       1.4  T
   3    -32.0766336  0.369637E-07  0.327E-03    3.67       6.0  T
   4    -32.0766337 -0.503640E-07  0.886E-04    3.67      22.1  T
   5    -32.0766337 -0.917091E-08  0.460E-04    3.67      42.6  T
   6    -32.0766337 -0.362481E-08  0.174E-04    3.67     113.0  T
   7    -32.0766337 -0.430020E-10  0.492E-05    3.67     398.6  T
   8    -32.0766337 -0.832756E-11  0.178E-05    3.67    1103.1  T
   9    -32.0766337 -0.611067E-12  0.858E-06    3.67    2284.7  T
  10    -32.0766337 -0.724754E-12  0.281E-06    3.67    6988.6  T
     SCC iter.                  ...        0 min,  0.073 sec
     gradient                   ...        0 min,  0.002 sec
 * total energy  :   -31.5559911 Eh     change       -0.1734996E-04 Eh
   gradient norm :     0.0010229 Eh/α   predicted    -0.1531561E-04 ( -11.73%)
   displ. norm   :     0.1919472 α      lambda       -0.1561309E-04
   maximum displ.:     0.1295798 α      in ANC's #3, #2, #1, ...

........................................................................
.............................. CYCLE   32 ..............................
........................................................................

 iter      E             dE          RMSdq      gap      omega  full diag
   1    -32.0759390 -0.320759E+02  0.446E-02    3.67       0.0  T
   2    -32.0759394 -0.345924E-06  0.259E-02    3.67       1.0  T
   3    -32.0759393  0.611366E-07  0.425E-03    3.67       4.6  T
   4    -32.0759394 -0.103282E-06  0.122E-03    3.67      16.1  T
   5    -32.0759395 -0.125690E-07  0.527E-04    3.67      37.2  T
   6    -32.0759395 -0.359775E-08  0.294E-04    3.67      66.8  T
   7    -32.0759395 -0.621320E-09  0.676E-05    3.67     290.3  T
   8    -32.0759395 -0.199520E-10  0.228E-05    3.67     858.7  T
   9    -32.0759395 -0.682832E-11  0.115E-05    3.67    1707.0  T
  10    -32.0759395 -0.611067E-12  0.193E-06    3.67   10178.1  T
  11    -32.0759395  0.213163E-13  0.771E-07    3.67   25429.9  T
     SCC iter.                  ...        0 min,  0.074 sec
     gradient                   ...        0 min,  0.002 sec
 * total energy  :   -31.5559957 Eh     change       -0.4543928E-05 Eh
   gradient norm :     0.0019398 Eh/α   predicted    -0.7935389E-05 (  74.64%)
   displ. norm   :     0.0744676 α      lambda       -0.1069230E-04
   maximum displ.:     0.0571447 α      in ANC's #3, #2, #1, ...

........................................................................
.............................. CYCLE   33 ..............................
........................................................................

 iter      E             dE          RMSdq      gap      omega  full diag
   1    -32.0767913 -0.320768E+02  0.164E-02    3.67       0.0  T
   2    -32.0767915 -0.188920E-06  0.923E-03    3.67       2.1  T
   3    -32.0767915  0.935604E-08  0.314E-03    3.67       6.2  T
   4    -32.0767915 -0.252881E-07  0.811E-04    3.67      24.2  T
   5    -32.0767916 -0.358002E-08  0.405E-04    3.67      48.4  T
   6    -32.0767916 -0.232409E-08  0.188E-04    3.67     104.6  T
   7    -32.0767916 -0.128672E-09  0.666E-05    3.67     294.4  T
   8    -32.0767916 -0.931522E-11  0.125E-05    3.67    1574.4  T
   9    -32.0767916 -0.518696E-12  0.569E-06    3.67    3448.3  T
  10    -32.0767916 -0.994760E-13  0.241E-06    3.67    8141.3  T
     SCC iter.                  ...        0 min,  0.074 sec
     gradient                   ...        0 min,  0.002 sec
 * total energy  :   -31.5560035 Eh     change       -0.7870175E-05 Eh
   gradient norm :     0.0008153 Eh/α   predicted    -0.5360995E-05 ( -31.88%)
   displ. norm   :     0.0192162 α      lambda       -0.2539116E-05
   maximum displ.:     0.0146450 α      in ANC's #5, #3, #11, ...

........................................................................
.............................. CYCLE   34 ..............................
........................................................................

 iter      E             dE          RMSdq      gap      omega  full diag
   1    -32.0765565 -0.320766E+02  0.704E-03    3.67       0.0  T
   2    -32.0765565 -0.183856E-07  0.382E-03    3.67       5.1  T
   3    -32.0765565 -0.644640E-09  0.911E-04    3.67      21.5  T
   4    -32.0765565 -0.603606E-09  0.263E-04    3.67      74.5  T
   5    -32.0765565 -0.804015E-09  0.685E-05    3.67     286.4  T
   6    -32.0765565 -0.416875E-10  0.376E-05    3.67     521.1  T
   7    -32.0765565 -0.126406E-10  0.109E-05    3.67    1802.4  T
   8    -32.0765565 -0.639488E-13  0.438E-06    3.67    4481.4  T
   9    -32.0765565 -0.227374E-12  0.143E-06    3.67   13673.3  T
     SCC iter.                  ...        0 min,  0.073 sec
     gradient                   ...        0 min,  0.002 sec
 * total energy  :   -31.5560060 Eh     change       -0.2497616E-05 Eh
   gradient norm :     0.0003822 Eh/α   predicted    -0.1270285E-05 ( -49.14%)
   displ. norm   :     0.0409610 α      lambda       -0.2670025E-05
   maximum displ.:     0.0275092 α      in ANC's #5, #2, #1, ...

........................................................................
.............................. CYCLE   35 ..............................
........................................................................

 iter      E             dE          RMSdq      gap      omega  full diag
   1    -32.0765529 -0.320766E+02  0.118E-02    3.67       0.0  T
   2    -32.0765529 -0.276795E-07  0.673E-03    3.67       2.9  T
   3    -32.0765529  0.152703E-09  0.105E-03    3.67      18.7  T
   4    -32.0765529 -0.339311E-08  0.374E-04    3.67      52.4  T
   5    -32.0765529 -0.106410E-08  0.135E-04    3.67     145.3  T
   6    -32.0765529 -0.209319E-09  0.550E-05    3.67     356.3  T
   7    -32.0765529 -0.669331E-11  0.201E-05    3.67     975.5  T
   8    -32.0765529 -0.117240E-11  0.466E-06    3.67    4208.9  T
   9    -32.0765529 -0.184741E-12  0.176E-06    3.67   11152.4  T
     SCC iter.                  ...        0 min,  0.073 sec
     gradient                   ...        0 min,  0.002 sec
 * total energy  :   -31.5560085 Eh     change       -0.2523636E-05 Eh
   gradient norm :     0.0006107 Eh/α   predicted    -0.1336766E-05 ( -47.03%)
   displ. norm   :     0.0520644 α      lambda       -0.2091689E-05
   maximum displ.:     0.0306666 α      in ANC's #2, #5, #1, ...

........................................................................
.............................. CYCLE   36 ..............................
........................................................................

 iter      E             dE          RMSdq      gap      omega  full diag
   1    -32.0766262 -0.320766E+02  0.139E-02    3.67       0.0  T
   2    -32.0766262 -0.107796E-07  0.812E-03    3.67       2.4  T
   3    -32.0766262  0.629527E-09  0.591E-04    3.67      33.2  T
   4    -32.0766262 -0.349776E-08  0.277E-04    3.67      70.9  T
   5    -32.0766262 -0.733181E-09  0.123E-04    3.67     159.3  T
   6    -32.0766262 -0.998810E-10  0.507E-05    3.67     387.1  T
   7    -32.0766262 -0.118092E-10  0.152E-05    3.67    1286.3  T
   8    -32.0766262 -0.390799E-12  0.666E-06    3.67    2943.3  T
   9    -32.0766262 -0.717648E-12  0.235E-06    3.67    8349.4  T
     SCC iter.                  ...        0 min,  0.073 sec
     gradient                   ...        0 min,  0.002 sec
 * total energy  :   -31.5560106 Eh     change       -0.2088677E-05 Eh
   gradient norm :     0.0005724 Eh/α   predicted    -0.1050472E-05 ( -49.71%)
   displ. norm   :     0.0574574 α      lambda       -0.2206695E-05
   maximum displ.:     0.0350249 α      in ANC's #2, #5, #1, ...

........................................................................
.............................. CYCLE   37 ..............................
........................................................................

 iter      E             dE          RMSdq      gap      omega  full diag
   1    -32.0767081 -0.320767E+02  0.149E-02    3.67       0.0  T
   2    -32.0767081 -0.947452E-08  0.880E-03    3.67       2.2  T
   3    -32.0767081  0.117992E-08  0.624E-04    3.67      31.4  T
   4    -32.0767081 -0.469238E-08  0.227E-04    3.67      86.3  T
   5    -32.0767081 -0.926548E-10  0.125E-04    3.67     156.7  T
   6    -32.0767081 -0.210015E-09  0.380E-05    3.67     516.6  T
   7    -32.0767081 -0.487432E-11  0.113E-05    3.67    1738.4  T
   8    -32.0767081 -0.405009E-12  0.615E-06    3.67    3187.8  T
   9    -32.0767081 -0.433431E-12  0.165E-06    3.67   11898.4  T
     SCC iter.                  ...        0 min,  0.073 sec
     gradient                   ...        0 min,  0.002 sec
 * total energy  :   -31.5560131 Eh     change       -0.2476846E-05 Eh
   gradient norm :     0.0005247 Eh/α   predicted    -0.1114849E-05 ( -54.99%)
   displ. norm   :     0.0741507 α      lambda       -0.3304632E-05
   maximum displ.:     0.0402239 α      in ANC's #5, #4, #2, ...

........................................................................
.............................. CYCLE   38 ..............................
........................................................................

 iter      E             dE          RMSdq      gap      omega  full diag
   1    -32.0769066 -0.320769E+02  0.204E-02    3.67       0.0  T
   2    -32.0769066 -0.289635E-07  0.119E-02    3.67       1.6  T
   3    -32.0769066 -0.941675E-09  0.887E-04    3.67      22.1  T
   4    -32.0769066 -0.511221E-08  0.465E-04    3.67      42.2  T
   5    -32.0769066 -0.174310E-08  0.186E-04    3.67     105.6  T
   6    -32.0769066 -0.931877E-10  0.614E-05    3.67     319.5  T
   7    -32.0769066 -0.286704E-10  0.199E-05    3.67     983.1  T
   8    -32.0769066 -0.468958E-12  0.575E-06    3.67    3408.7  T
   9    -32.0769066 -0.149214E-12  0.230E-06    3.67    8544.7  T
     SCC iter.                  ...        0 min,  0.076 sec
     gradient                   ...        0 min,  0.002 sec
 * total energy  :   -31.5560163 Eh     change       -0.3187174E-05 Eh
   gradient norm :     0.0005387 Eh/α   predicted    -0.1660120E-05 ( -47.91%)
   displ. norm   :     0.0565303 α      lambda       -0.2099127E-05
   maximum displ.:     0.0347637 α      in ANC's #4, #5, #2, ...

........................................................................
.............................. CYCLE   39 ..............................
........................................................................

 iter      E             dE          RMSdq      gap      omega  full diag
   1    -32.0768310 -0.320768E+02  0.158E-02    3.67       0.0  T
   2    -32.0768310 -0.270388E-07  0.905E-03    3.67       2.2  T
   3    -32.0768310  0.224033E-08  0.143E-03    3.67      13.7  T
   4    -32.0768310 -0.746378E-08  0.297E-04    3.67      66.0  T
   5    -32.0768310 -0.228063E-09  0.107E-04    3.67     183.1  T
   6    -32.0768310 -0.539870E-10  0.619E-05    3.67     316.7  T
   7    -32.0768310 -0.221689E-10  0.173E-05    3.67    1133.1  T
   8    -32.0768310 -0.100187E-11  0.460E-06    3.67    4264.3  T
   9    -32.0768310 -0.852651E-13  0.193E-06    3.67   10144.5  T
     SCC iter.                  ...        0 min,  0.073 sec
     gradient                   ...        0 min,  0.002 sec
 * total energy  :   -31.5560182 Eh     change       -0.1892300E-05 Eh
   gradient norm :     0.0004320 Eh/α   predicted    -0.1051982E-05 ( -44.41%)
   displ. norm   :     0.0308035 α      lambda       -0.1258648E-05
   maximum displ.:     0.0209477 α      in ANC's #4, #3, #6, ...

........................................................................
.............................. CYCLE   40 ..............................
........................................................................

 iter      E             dE          RMSdq      gap      omega  full diag
   1    -32.0768213 -0.320768E+02  0.816E-03    3.67       0.0  T
   2    -32.0768213 -0.488046E-08  0.473E-03    3.67       4.1  T
   3    -32.0768213 -0.265103E-09  0.438E-04    3.67      44.8  T
   4    -32.0768213 -0.146059E-09  0.234E-04    3.67      83.7  T
   5    -32.0768213 -0.870266E-09  0.692E-05    3.67     283.3  T
   6    -32.0768213 -0.184670E-10  0.261E-05    3.67     752.2  T
   7    -32.0768213 -0.277822E-11  0.607E-06    3.67    3229.5  T
   8    -32.0768213 -0.575540E-12  0.244E-06    3.67    8035.6  T
     SCC iter.                  ...        0 min,  0.072 sec
     gradient                   ...        0 min,  0.002 sec
 * total energy  :   -31.5560196 Eh     change       -0.1377689E-05 Eh
   gradient norm :     0.0003212 Eh/α   predicted    -0.6306374E-06 ( -54.22%)
   displ. norm   :     0.0280014 α      lambda       -0.1059782E-05
   maximum displ.:     0.0195326 α      in ANC's #3, #4, #5, ...

........................................................................
.............................. CYCLE   41 ..............................
........................................................................

 iter      E             dE          RMSdq      gap      omega  full diag
   1    -32.0767443 -0.320767E+02  0.614E-03    3.67       0.0  T
   2    -32.0767443 -0.442601E-08  0.358E-03    3.67       5.5  T
   3    -32.0767443  0.253621E-09  0.378E-04    3.67      51.9  T
   4    -32.0767443 -0.553875E-09  0.159E-04    3.67     123.3  T
   5    -32.0767443 -0.452069E-09  0.725E-05    3.67     270.5  T
   6    -32.0767443 -0.803126E-10  0.298E-05    3.67     657.4  T
   7    -32.0767443 -0.117240E-11  0.785E-06    3.67    2497.9  T
   8    -32.0767443 -0.611067E-12  0.287E-06    3.67    6842.3  T
     SCC iter.                  ...        0 min,  0.072 sec
     gradient                   ...        0 min,  0.002 sec
 * total energy  :   -31.5560207 Eh     change       -0.1140082E-05 Eh
   gradient norm :     0.0002522 Eh/α   predicted    -0.5329931E-06 ( -53.25%)
   displ. norm   :     0.0286230 α      lambda       -0.8001738E-06
   maximum displ.:     0.0197118 α      in ANC's #3, #4, #10, ...

........................................................................
.............................. CYCLE   42 ..............................
........................................................................

 iter      E             dE          RMSdq      gap      omega  full diag
   1    -32.0766677 -0.320767E+02  0.676E-03    3.67       0.0  T
   2    -32.0766677 -0.481720E-08  0.398E-03    3.67       4.9  T
   3    -32.0766677  0.411262E-09  0.368E-04    3.67      53.2  T
   4    -32.0766677 -0.807901E-09  0.175E-04    3.67     111.8  T
   5    -32.0766677 -0.648491E-09  0.631E-05    3.67     310.7  T
   6    -32.0766677 -0.356835E-10  0.288E-05    3.67     681.7  T
   7    -32.0766677 -0.290612E-11  0.547E-06    3.67    3587.3  T
   8    -32.0766677 -0.781597E-13  0.242E-06    3.67    8102.7  T
     SCC iter.                  ...        0 min,  0.072 sec
     gradient                   ...        0 min,  0.002 sec
 * total energy  :   -31.5560215 Eh     change       -0.7836751E-06 Eh
   gradient norm :     0.0002449 Eh/α   predicted    -0.4014740E-06 ( -48.77%)
   displ. norm   :     0.0261982 α      lambda        0.1102448E-06
   maximum displ.:     0.0180080 α      in ANC's #3, #4, #10, ...
 * RMSD in coord.:     0.4207754 α      energy gain  -0.1265424E-02 Eh

generating ANC from model Hessian ...
Using Lindh-Hessian (1995)
 Shifting diagonal of input Hessian by   9.140862316200144E-003
 Lowest  eigenvalues of input Hessian
    0.000000    0.000000    0.000000    0.000000    0.000000    0.000000
    0.010000    0.010077    0.010727    0.011008    0.011410    0.012523
    0.015102    0.016950    0.018380    0.018590    0.021946    0.024147
 Highest eigenvalues
    1.363684    1.554223    1.573706    1.882162    1.988253    2.004378
 

........................................................................
.............................. CYCLE   43 ..............................
........................................................................

 iter      E             dE          RMSdq      gap      omega  full diag
   1    -32.0765734 -0.320766E+02  0.621E-03    3.67       0.0  T
   2    -32.0765734 -0.443507E-08  0.365E-03    3.67       5.4  T
   3    -32.0765734  0.303665E-09  0.347E-04    3.67      56.5  T
   4    -32.0765734 -0.657451E-09  0.166E-04    3.67     118.4  T
   5    -32.0765734 -0.568157E-09  0.592E-05    3.67     331.5  T
   6    -32.0765734 -0.298570E-10  0.268E-05    3.67     731.8  T
   7    -32.0765734 -0.306954E-11  0.565E-06    3.67    3473.8  T
   8    -32.0765734 -0.781597E-13  0.227E-06    3.67    8640.9  T
     SCC iter.                  ...        0 min,  0.072 sec
     gradient                   ...        0 min,  0.002 sec
 * total energy  :   -31.5560214 Eh     change        0.7898100E-07 Eh
   gradient norm :     0.0005214 Eh/α   predicted     0.0000000E+00 (-100.00%)
   displ. norm   :     0.0071722 α      lambda       -0.3215109E-06
   maximum displ.:     0.0040058 α      in ANC's #1, #9, #11, ...

........................................................................
.............................. CYCLE   44 ..............................
........................................................................

 iter      E             dE          RMSdq      gap      omega  full diag
   1    -32.0767756 -0.320768E+02  0.470E-03    3.67       0.0  T
   2    -32.0767757 -0.127412E-07  0.259E-03    3.67       7.6  T
   3    -32.0767757  0.678313E-09  0.696E-04    3.67      28.2  T
   4    -32.0767757 -0.160014E-09  0.374E-04    3.67      52.4  T
   5    -32.0767757 -0.228719E-08  0.843E-05    3.67     232.8  T
   6    -32.0767757  0.685674E-11  0.485E-05    3.67     404.3  T
   7    -32.0767757 -0.267022E-10  0.127E-05    3.67    1542.4  T
   8    -32.0767757 -0.369482E-12  0.439E-06    3.67    4463.7  T
   9    -32.0767757 -0.142109E-12  0.152E-06    3.67   12942.1  T
     SCC iter.                  ...        0 min,  0.073 sec
     gradient                   ...        0 min,  0.002 sec
 * total energy  :   -31.5560220 Eh     change       -0.6069531E-06 Eh
   gradient norm :     0.0001980 Eh/α   predicted    -0.4496817E-06 ( -25.91%)
   displ. norm   :     0.0058312 α      lambda       -0.2706138E-06
   maximum displ.:     0.0040991 α      in ANC's #1, #9, #2, ...

........................................................................
.............................. CYCLE   45 ..............................
........................................................................

 iter      E             dE          RMSdq      gap      omega  full diag
   1    -32.0767701 -0.320768E+02  0.322E-03    3.67       0.0  T
   2    -32.0767701 -0.346829E-08  0.180E-03    3.67      10.9  T
   3    -32.0767701 -0.190170E-09  0.354E-04    3.67      55.4  T
   4    -32.0767701 -0.669758E-10  0.127E-04    3.67     154.0  T
   5    -32.0767701 -0.185118E-09  0.272E-05    3.67     720.2  T
   6    -32.0767701 -0.843414E-11  0.148E-05    3.67    1326.3  T
   7    -32.0767701 -0.142819E-11  0.465E-06    3.67    4216.2  T
   8    -32.0767701  0.426326E-13  0.155E-06    3.67   12613.4  T
     SCC iter.                  ...        0 min,  0.072 sec
     gradient                   ...        0 min,  0.002 sec
 * total energy  :   -31.5560223 Eh     change       -0.2616334E-06 Eh
   gradient norm :     0.0001473 Eh/α   predicted    -0.1365000E-06 ( -47.83%)
   displ. norm   :     0.0082064 α      lambda       -0.1987034E-06
   maximum displ.:     0.0060254 α      in ANC's #1, #9, #2, ...

........................................................................
.............................. CYCLE   46 ..............................
........................................................................

 iter      E             dE          RMSdq      gap      omega  full diag
   1    -32.0767107 -0.320767E+02  0.313E-03    3.67       0.0  T
   2    -32.0767107 -0.841339E-09  0.183E-03    3.67      10.7  T
   3    -32.0767107  0.119847E-09  0.143E-04    3.67     137.5  T
   4    -32.0767107 -0.236753E-09  0.714E-05    3.67     274.8  T
   5    -32.0767107 -0.714806E-10  0.219E-05    3.67     896.9  T
   6    -32.0767107 -0.109424E-11  0.104E-05    3.67    1877.2  T
   7    -32.0767107 -0.618172E-12  0.287E-06    3.67    6839.1  T
   8    -32.0767107 -0.568434E-13  0.105E-06    3.67   18740.0  T
     SCC iter.                  ...        0 min,  0.072 sec
     gradient                   ...        0 min,  0.002 sec
 * total energy  :   -31.5560225 Eh     change       -0.2530756E-06 Eh
   gradient norm :     0.0001020 Eh/α   predicted    -0.1069088E-06 ( -57.76%)
   displ. norm   :     0.0117402 α      lambda       -0.2293625E-06
   maximum displ.:     0.0085366 α      in ANC's #1, #2, #9, ...

........................................................................
.............................. CYCLE   47 ..............................
........................................................................

 iter      E             dE          RMSdq      gap      omega  full diag
   1    -32.0766766 -0.320767E+02  0.429E-03    3.67       0.0  T
   2    -32.0766766 -0.748592E-09  0.252E-03    3.67       7.8  T
   3    -32.0766766 -0.271072E-10  0.137E-04    3.67     143.6  T
   4    -32.0766766 -0.185189E-09  0.718E-05    3.67     273.2  T
   5    -32.0766766 -0.509814E-10  0.278E-05    3.67     705.9  T
   6    -32.0766766 -0.120792E-11  0.125E-05    3.67    1568.6  T
   7    -32.0766766 -0.831335E-12  0.336E-06    3.67    5839.7  T
   8    -32.0766766 -0.568434E-13  0.900E-07    3.67   21783.7  T
     SCC iter.                  ...        0 min,  0.072 sec
     gradient                   ...        0 min,  0.002 sec
 * total energy  :   -31.5560228 Eh     change       -0.2807577E-06 Eh
   gradient norm :     0.0001176 Eh/α   predicted    -0.1157860E-06 ( -58.76%)
   displ. norm   :     0.0126259 α      lambda       -0.2004850E-06
   maximum displ.:     0.0092908 α      in ANC's #1, #2, #9, ...

........................................................................
.............................. CYCLE   48 ..............................
........................................................................

[...]
         :: total charge               0.000000000000 e     ::
         :::::::::::::::::::::::::::::::::::::::::::::::::::::

           ------------------------------------------------- 
          |                Numerical Hessian                |
           ------------------------------------------------- 
step length          :   0.00500
SCC accuracy         :   0.30000
Hessian scale factor :   1.00000
frozen atoms in %    :   0.00000    0
RMS gradient         :   0.00002
estimated CPU  time      1.17 min
estimated wall time      0.15 min

writing file <hessian>.

 projected vibrational frequencies (cm⁻¹)
eigval :       -0.00     0.00     0.00     0.00     0.00     0.00
eigval :       10.04    52.49    71.73    99.43   131.64   159.32
eigval :      199.27   214.95   232.36   266.34   291.24   333.74
eigval :      361.59   429.21   452.13   586.02   656.90   661.91
eigval :      687.28   698.94   735.90   762.02   779.07   873.57
eigval :      898.03   926.23   932.62   969.15   977.10   993.95
eigval :     1012.40  1018.69  1071.19  1077.16  1083.42  1117.38
eigval :     1120.85  1181.62  1198.17  1224.40  1229.48  1251.10
eigval :     1252.39  1280.00  1315.42  1409.68  1410.85  1423.34
eigval :     1438.64  1448.14  1457.43  1497.26  1498.86  1500.96
eigval :     1502.50  1579.65  1589.44  2925.99  2936.45  2948.09
eigval :     2951.09  3013.83  3014.37  3019.93  3024.72  3029.99
eigval :     3033.59  3062.17  3066.07  3074.21  3079.91  3088.00
           -------------------------------------------------
          |                Property Printout                |
           -------------------------------------------------

    * Orbital Energies and Occupations

         #    Occupation            Energy/Eh            Energy/eV
      -------------------------------------------------------------
         1        2.0000           -0.6580370             -17.9061
       ...           ...                  ...                  ...
        18        2.0000           -0.4773119             -12.9883
        19        2.0000           -0.4745278             -12.9126
        20        2.0000           -0.4632666             -12.6061
        21        2.0000           -0.4617905             -12.5660
        22        2.0000           -0.4524918             -12.3129
        23        2.0000           -0.4445975             -12.0981
        24        2.0000           -0.4381434             -11.9225
        25        2.0000           -0.4230571             -11.5120
        26        2.0000           -0.4182764             -11.3819
        27        2.0000           -0.4045514             -11.0084
        28        2.0000           -0.4040742             -10.9954
        29        2.0000           -0.3968638             -10.7992
        30        2.0000           -0.3672945              -9.9946 (HOMO)
        31                         -0.2326011              -6.3294 (LUMO)
        32                         -0.2227730              -6.0620
        33                         -0.1561606              -4.2493
        34                         -0.1513165              -4.1175
        35                         -0.0928264              -2.5259
        36                         -0.0019725              -0.0537
        37                          0.0592037               1.6110
        38                          0.0914449               2.4883
        39                          0.1092797               2.9737
        40                          0.1327783               3.6131
        41                          0.1364989               3.7143
       ...                                ...                  ...
        64                          0.7811270              21.2555
      -------------------------------------------------------------
                  HL-Gap            0.1346934 Eh            3.6652 eV
             Fermi-level           -0.2999478 Eh           -8.1620 eV

     #   Z          covCN         q      C6AA      α(0)
     1  15 P        3.057    -0.114   165.386    23.102
     2   6 C        3.748    -0.048    21.493     6.613
     3   1 H        0.925     0.041     2.432     2.439
     4   1 H        0.925     0.040     2.450     2.448
     5   6 C        3.822    -0.098    22.350     6.728
     6   1 H        0.925     0.036     2.497     2.471
     7   1 H        0.925     0.042     2.421     2.433
     8   1 H        0.925     0.033     2.548     2.496
     9   6 C        2.916     0.008    27.846     8.653
    10   6 C        3.018    -0.030    28.730     8.792
    11   6 C        2.960    -0.030    28.737     8.793
    12   6 C        2.918    -0.030    28.748     8.792
    13   6 C        2.919    -0.031    28.769     8.796
    14   6 C        2.920    -0.029    28.735     8.790
    15   1 H        0.925     0.039     2.457     2.451
    16   1 H        0.926     0.032     2.563     2.503
    17   1 H        0.926     0.030     2.586     2.515
    18   1 H        0.926     0.028     2.612     2.527
    19   1 H        0.926     0.029     2.598     2.521
    20   6 C        3.748    -0.045    21.447     6.605
    21   1 H        0.925     0.042     2.419     2.432
    22   1 H        0.925     0.040     2.450     2.448
    23   6 C        3.819    -0.097    22.333     6.726
    24   1 H        0.925     0.036     2.503     2.474
    25   1 H        0.925     0.042     2.425     2.435
    26   1 H        0.925     0.032     2.551     2.498

 Mol. C6AA /au·bohr⁶  :       7598.166699
 Mol. C8AA /au·bohr⁸  :     202559.333514
 Mol. α(0) /au        :        139.481728


Wiberg/Mayer (AO) data.
largest (>0.10) Wiberg bond orders for each atom

 ---------------------------------------------------------------------------
     #   Z sym  total        # sym  WBO       # sym  WBO       # sym  WBO
 ---------------------------------------------------------------------------
     1  15 P    3.344 --     2 C    1.027    20 C    1.020     9 C    1.008
     2   6 C    3.995 --     1 P    1.027     5 C    1.016     4 H    0.960
                             3 H    0.951
     3   1 H    0.998 --     2 C    0.951
     4   1 H    0.998 --     2 C    0.960
     5   6 C    3.996 --     2 C    1.016     7 H    0.985     8 H    0.985
                             6 H    0.985
     6   1 H    0.999 --     5 C    0.985
     7   1 H    0.998 --     5 C    0.985
     8   1 H    0.998 --     5 C    0.985
     9   6 C    3.983 --    10 C    1.406    11 C    1.400     1 P    1.008
                            14 C    0.108
    10   6 C    3.991 --    12 C    1.444     9 C    1.406    15 H    0.964
                            13 C    0.109
    11   6 C    3.993 --    13 C    1.448     9 C    1.400    16 H    0.963
                            12 C    0.110
    12   6 C    3.992 --    10 C    1.444    14 C    1.439    17 H    0.970
                            11 C    0.110
    13   6 C    3.993 --    11 C    1.448    14 C    1.434    18 H    0.970
                            10 C    0.109
    14   6 C    3.990 --    12 C    1.439    13 C    1.434    19 H    0.971
                             9 C    0.108
    15   1 H    0.998 --    10 C    0.964
    16   1 H    0.999 --    11 C    0.963
    17   1 H    0.999 --    12 C    0.970
    18   1 H    0.999 --    13 C    0.970
    19   1 H    0.998 --    14 C    0.971
    20   6 C    3.996 --     1 P    1.020    23 C    1.017    22 H    0.957
                            21 H    0.952
    21   1 H    0.998 --    20 C    0.952
    22   1 H    0.998 --    20 C    0.957
    23   6 C    3.997 --    20 C    1.017    25 H    0.985    26 H    0.984
                            24 H    0.984
    24   1 H    0.999 --    23 C    0.984
    25   1 H    0.998 --    23 C    0.985
    26   1 H    0.999 --    23 C    0.984
 ---------------------------------------------------------------------------

Topologies differ in total number of bonds
Writing topology from bond orders to xtbtopo.mol

molecular dipole:
                 x           y           z       tot (Debye)
 q only:       -0.080       0.085      -0.220
   full:       -0.142       0.002      -0.619       1.614
molecular quadrupole (traceless):
                xx          xy          yy          xz          yz          zz
 q only:       -0.723      -0.186      -1.464       0.209      -0.370       2.187
  q+dip:       -4.252      -2.747      -3.528       0.939       2.194       7.780
   full:       -3.361      -1.331      -2.843      -0.598       0.977       6.203

           -------------------------------------------------
          |                Geometry Summary                 |
           -------------------------------------------------

      molecular mass/u    :      166.2002322
   center of mass at/Å    :        2.0636593      -1.1091235      -3.6351431
  moments of inertia/u·Å² :        0.3315017E+03   0.8153199E+03   0.9489995E+03
rotational constants/cm⁻¹ :        0.5085232E-01   0.2067610E-01   0.1776358E-01

 * 23 selected distances

     #   Z          #   Z                                           value/Å
     2   6 C        3   1 H                                       1.0930068
     2   6 C        4   1 H                                       1.0935299
     2   6 C        5   6 C                                       1.5239339 (max)
     5   6 C        6   1 H                                       1.0883187
     5   6 C        7   1 H                                       1.0879897
     5   6 C        8   1 H                                       1.0888628
     9   6 C       10   6 C                                       1.3909202
     9   6 C       11   6 C                                       1.3899361
    10   6 C       12   6 C                                       1.3831046
    11   6 C       13   6 C                                       1.3830492
    12   6 C       14   6 C                                       1.3843672
    13   6 C       14   6 C                                       1.3851344
    10   6 C       15   1 H                                       1.0815179
    11   6 C       16   1 H                                       1.0803161
    12   6 C       17   1 H                                       1.0805418
    13   6 C       18   1 H                                       1.0809538
    14   6 C       19   1 H                                       1.0803065 (min)
    20   6 C       21   1 H                                       1.0941634
    20   6 C       22   1 H                                       1.0934214
    20   6 C       23   6 C                                       1.5218694
    23   6 C       24   1 H                                       1.0889906
    23   6 C       25   1 H                                       1.0882453
    23   6 C       26   1 H                                       1.0888524

 * 2 distinct bonds (by element types)

   Z      Z             #   av. dist./Å        max./Å        min./Å
   1 H    6 C          15     1.0872678     1.0941634     1.0803065
   6 C    6 C           8     1.4202894     1.5239339     1.3830492

           -------------------------------------------------
          |               Frequency Printout                |
           -------------------------------------------------
 projected vibrational frequencies (cm⁻¹)
eigval :       -0.00     0.00     0.00     0.00     0.00     0.00
eigval :       10.04    52.49    71.73    99.43   131.64   159.32
eigval :      199.27   214.95   232.36   266.34   291.24   333.74
eigval :      361.59   429.21   452.13   586.02   656.90   661.91
eigval :      687.28   698.94   735.90   762.02   779.07   873.57
eigval :      898.03   926.23   932.62   969.15   977.10   993.95
eigval :     1012.40  1018.69  1071.19  1077.16  1083.42  1117.38
eigval :     1120.85  1181.62  1198.17  1224.40  1229.48  1251.10
eigval :     1252.39  1280.00  1315.42  1409.68  1410.85  1423.34
eigval :     1438.64  1448.14  1457.43  1497.26  1498.86  1500.96
eigval :     1502.50  1579.65  1589.44  2925.99  2936.45  2948.09
eigval :     2951.09  3013.83  3014.37  3019.93  3024.72  3029.99
eigval :     3033.59  3062.17  3066.07  3074.21  3079.91  3088.00
 reduced masses (amu)
   1: 14.79   2: 10.98   3: 14.70   4: 12.94   5: 11.62   6: 11.58   7:  9.95   8:  9.97
   9:  8.55  10:  8.63  11:  9.51  12:  7.22  13:  6.53  14:  4.24  15:  8.98  16:  9.74
  17: 12.91  18: 12.98  19:  8.81  20: 21.23  21: 10.15  22: 11.17  23: 11.10  24: 12.26
  25: 13.35  26: 16.39  27:  3.61  28:  4.32  29:  5.30  30:  3.32  31:  3.55  32:  4.19
  33:  3.03  34: 10.40  35:  3.16  36:  2.96  37:  3.74  38:  4.24  39:  9.55  40:  9.37
  41:  8.00  42:  7.13  43:  5.90  44:  1.34  45:  2.00  46:  3.56  47:  3.44  48:  4.30
  49:  4.25  50:  3.35  51: 11.95  52:  2.90  53:  2.95  54:  8.58  55:  2.13  56:  2.06
  57:  8.27  58:  1.52  59:  1.53  60:  1.55  61:  1.55  62: 11.46  63: 11.45  64:  1.83
  65:  1.85  66:  1.61  67:  1.65  68:  1.91  69:  1.87  70:  1.80  71:  1.87  72:  1.43
  73:  1.41  74:  1.79  75:  1.76  76:  1.82  77:  1.86  78:  1.92
 IR intensities (km·mol⁻¹)
   1:  0.01   2:  0.01   3:  0.02   4:  0.03   5:  0.12   6:  0.29   7:  0.24   8:  0.01
   9:  0.06  10:  0.03  11:  0.26  12:  0.32  13:  0.23  14:  0.19  15:  0.01  16:  0.49
  17:  0.08  18:  0.32  19:  0.05  20:  8.85  21:  2.94  22:  0.12  23:  4.23  24:  6.03
  25:  4.57  26: 45.81  27: 13.46  28: 23.43  29: 23.09  30:  0.05  31:  0.04  32:  0.05
  33:  0.00  34:  1.74  35:  1.28  36:  4.54  37:  2.56  38:  1.40  39:  2.79  40:  2.38
  41:  0.03  42:  3.25  43:  3.38  44:  0.02  45:  0.76  46:  2.13  47:  0.75  48: 11.22
  49:  5.45  50:  1.33  51:  0.76  52:  1.51  53:  2.28  54:  1.56  55:  0.31  56:  0.47
  57:  0.52  58:  2.19  59:  2.83  60:  1.87  61:  1.05  62:  0.44  63:  0.81  64: 12.28
  65: 31.86  66: 10.25  67: 30.22  68: 48.15  69: 49.46  70: 29.90  71: 36.40  72: 15.47
  73: 23.67  74: 12.51  75:  5.21  76: 20.35  77: 80.11  78: 57.43
 Raman intensities (Ä⁴*amu⁻¹)
   1:  0.00   2:  0.00   3:  0.00   4:  0.00   5:  0.00   6:  0.00   7:  0.00   8:  0.00
   9:  0.00  10:  0.00  11:  0.00  12:  0.00  13:  0.00  14:  0.00  15:  0.00  16:  0.00
  17:  0.00  18:  0.00  19:  0.00  20:  0.00  21:  0.00  22:  0.00  23:  0.00  24:  0.00
  25:  0.00  26:  0.00  27:  0.00  28:  0.00  29:  0.00  30:  0.00  31:  0.00  32:  0.00
  33:  0.00  34:  0.00  35:  0.00  36:  0.00  37:  0.00  38:  0.00  39:  0.00  40:  0.00
  41:  0.00  42:  0.00  43:  0.00  44:  0.00  45:  0.00  46:  0.00  47:  0.00  48:  0.00
  49:  0.00  50:  0.00  51:  0.00  52:  0.00  53:  0.00  54:  0.00  55:  0.00  56:  0.00
  57:  0.00  58:  0.00  59:  0.00  60:  0.00  61:  0.00  62:  0.00  63:  0.00  64:  0.00
  65:  0.00  66:  0.00  67:  0.00  68:  0.00  69:  0.00  70:  0.00  71:  0.00  72:  0.00
  73:  0.00  74:  0.00  75:  0.00  76:  0.00  77:  0.00  78:  0.00
 output can be read by thermo (or use thermo option).
 writing <g98.out> molden fake output.
 recommended (thermochemical) frequency scaling factor: 1.0
           -------------------------------------------------
          |             Thermodynamic Functions             |
           -------------------------------------------------

Refinement of some symmetry elements was terminated before convergence was reached.
Some symmetry elements may remain unidentified.
Molecule has no symmetry elements
It seems to be the C1 point group
c1  symmetry found (for desy threshold:  0.10E+00) used in thermo

          ...................................................
          :                      SETUP                      :
          :.................................................:
          :  # frequencies                          72      :
          :  # imaginary freq.                       0      :
          :  linear?                             false      :
          :  only rotor calc.                    false      :
          :  symmetry                               c1      :
          :  rotational number                       1      :
          :  scaling factor                  1.0000000      :
          :  rotor cutoff                   50.0000000 cm⁻¹ :
          :  imag. cutoff                  -20.0000000 cm⁻¹ :
          :.................................................:

    mode    ω/cm⁻¹     T·S(HO)/kcal·mol⁻¹    T·S(FR)/kcal·mol⁻¹   T·S(vib)
   ------------------------------------------------------------------------
       1     10.04    -2.38609 (  0.16%)    -1.53142 ( 99.84%)    -1.53281
       2     52.49    -1.40770 ( 54.84%)    -1.04204 ( 45.16%)    -1.24256
       3     71.73    -1.22398 ( 80.90%)    -0.94953 ( 19.10%)    -1.17156
       4     99.43    -1.03320 ( 93.99%)    -0.85282 (  6.01%)    -1.02236
       5    131.64    -0.87117 ( 97.96%)    -0.76972 (  2.04%)    -0.86911
       6    159.32    -0.76262 ( 99.04%)    -0.71319 (  0.96%)    -0.76214
       7    199.27    -0.63798 ( 99.61%)    -0.64691 (  0.39%)    -0.63801
       8    214.95    -0.59667 ( 99.71%)    -0.62449 (  0.29%)    -0.59675
       9    232.36    -0.55475 ( 99.79%)    -0.60141 (  0.21%)    -0.55485
      10    266.34    -0.48296 ( 99.88%)    -0.56099 (  0.12%)    -0.48306
      11    291.24    -0.43731 ( 99.91%)    -0.53451 (  0.09%)    -0.43739
   ------------------------------------------------------------------------

   temp. (K)  partition function   enthalpy   heat capacity  entropy
                                   cal/mol     cal/K/mol   cal/K/mol   J/K/mol
 298.15  VIB  0.697E+05             6275.275     39.245     39.574
         ROT  0.122E+07              888.752      2.981     30.837
         INT  0.853E+11             7164.028     42.226     70.411
         TR   0.207E+28             1481.254      4.968     41.214
         TOT                        8645.2815    47.1942   111.6245   467.0368

       T/K    H(0)-H(T)+PV         H(T)/Eh          T*S/Eh         G(T)/Eh
   ------------------------------------------------------------------------
    298.15    0.137771E-01    0.232260E+00    0.530364E-01    0.179224E+00
   ------------------------------------------------------------------------

         :::::::::::::::::::::::::::::::::::::::::::::::::::::
         ::                  THERMODYNAMIC                  ::
         :::::::::::::::::::::::::::::::::::::::::::::::::::::
         :: total free energy         -31.376802614963 Eh   ::
         ::.................................................::
         :: total energy              -31.556026413875 Eh   ::
         :: zero point energy           0.218483053795 Eh   ::
         :: G(RRHO) w/o ZPVE           -0.039259254882 Eh   ::
         :: G(RRHO) contrib.            0.179223798913 Eh   ::
         :::::::::::::::::::::::::::::::::::::::::::::::::::::

optimized geometry written to: xtbopt.xyz


           -------------------------------------------------
          | TOTAL ENERGY              -31.556026413875 Eh   |
          | TOTAL ENTHALPY            -31.323766227124 Eh   |
          | TOTAL FREE ENERGY         -31.376802614963 Eh   |
          | GRADIENT NORM               0.000023067861 Eh/α |
          | HOMO-LUMO GAP               3.665193522679 eV   |
           -------------------------------------------------

------------------------------------------------------------------------
 * finished run on 2025/07/14 at 11:29:06.230     
------------------------------------------------------------------------
 total:
 * wall-time:     0 d,  0 h,  0 min,  8.557 sec
 *  cpu-time:     0 d,  0 h,  1 min, 29.907 sec
 * ratio c/w:    10.506 speedup
 SCF:
 * wall-time:     0 d,  0 h,  0 min,  0.086 sec
 *  cpu-time:     0 d,  0 h,  0 min,  1.028 sec
 * ratio c/w:    11.900 speedup
 ANC optimizer:
 * wall-time:     0 d,  0 h,  0 min,  5.305 sec
 *  cpu-time:     0 d,  0 h,  1 min,  3.100 sec
 * ratio c/w:    11.894 speedup
 analytical hessian:
 * wall-time:     0 d,  0 h,  0 min,  3.156 sec
 *  cpu-time:     0 d,  0 h,  0 min, 25.677 sec
 * ratio c/w:     8.135 speedup

