      -----------------------------------------------------------      
     |                   =====================                   |     
     |                           x T B                           |     
     |                   =====================                   |     
     |                         S. Grimme                         |     
     |          Mulliken Center for Theoretical Chemistry        |     
     |                    University of Bonn                     |     
      -----------------------------------------------------------      

   * xtb version 6.7.0 (08769fc) compiled by 'albert@albert-system' on 2024-03-04

   xtb is free software: you can redistribute it and/or modify it under
   the terms of the GNU Lesser General Public License as published by
   the Free Software Foundation, either version 3 of the License, or
   (at your option) any later version.
   
   xtb is distributed in the hope that it will be useful,
   but WITHOUT ANY WARRANTY; without even the implied warranty of
   MERCHANTABILITY or FITNESS FOR A PARTICULAR PURPOSE.  See the
   GNU Lesser General Public License for more details.
   
   Cite this work as:
   * C. Bannwarth, E. Caldeweyher, S. Ehlert, A. Hansen, P. Pracht,
     J. Seibert, S. Spicher, S. Grimme, WIREs Comput. Mol. Sci., 2020, 11,
     e01493. DOI: 10.1002/wcms.1493
   
   for GFN2-xTB:
   * C. Bannwarth, S. Ehlert and S. Grimme., J. Chem. Theory Comput., 2019,
     15, 1652-1671. DOI: 10.1021/acs.jctc.8b01176
   for GFN1-xTB:
   * S. Grimme, C. Bannwarth, P. Shushkov, J. Chem. Theory Comput., 2017,
     13, 1989-2009. DOI: 10.1021/acs.jctc.7b00118
   for GFN0-xTB:
   * P. Pracht, E. Caldeweyher, S. Ehlert, S. Grimme, ChemRxiv, 2019, preprint.
     DOI: 10.26434/chemrxiv.8326202.v1
   for GFN-FF:
   * S. Spicher and S. Grimme, Angew. Chem. Int. Ed., 2020, 59, 15665-15673.
     DOI: 10.1002/anie.202004239
   
   for ALPB and GBSA implicit solvation:
   * S. Ehlert, M. Stahn, S. Spicher, S. Grimme, J. Chem. Theory Comput.,
     2021, 17, 4250-4261. DOI: 10.1021/acs.jctc.1c00471
   
   for ddCOSMO and CPCM-X implicit solvation:
   * M. Stahn, S. Ehlert, S. Grimme, J. Phys. Chem. A,
     2023, XX, XXXX-XXXX. DOI: 10.1021/acs.jpca.3c04382
   
   for DFT-D4:
   * E. Caldeweyher, C. Bannwarth and S. Grimme, J. Chem. Phys., 2017,
     147, 034112. DOI: 10.1063/1.4993215
   * E. Caldeweyher, S. Ehlert, A. Hansen, H. Neugebauer, S. Spicher,
     C. Bannwarth and S. Grimme, J. Chem. Phys., 2019, 150, 154122.
     DOI: 10.1063/1.5090222
   * E. Caldeweyher, J.-M. Mewes, S. Ehlert and S. Grimme, Phys. Chem. Chem. Phys.
     2020, 22, 8499-8512. DOI: 10.1039/D0CP00502A
   
   for sTDA-xTB:
   * S. Grimme and C. Bannwarth, J. Chem. Phys., 2016, 145, 054103.
     DOI: 10.1063/1.4959605
   
   in the mass-spec context:
   * V. Asgeirsson, C. Bauer and S. Grimme, Chem. Sci., 2017, 8, 4879.
     DOI: 10.1039/c7sc00601b
   * J. Koopman and S. Grimme, ACS Omega 2019, 4, 12, 15120-15133.
     DOI: 10.1021/acsomega.9b02011
   
   for metadynamics refer to:
   * S. Grimme, J. Chem. Theory Comput., 2019, 155, 2847-2862
     DOI: 10.1021/acs.jctc.9b00143
   
   for SPH calculations refer to:
   * S. Spicher and S. Grimme, J. Chem. Theory Comput., 2021, 17, 1701-1714
     DOI: 10.1021/acs.jctc.0c01306
   
   for ONIOM refer to:
   * C. Plett, A. Katbashev, S. Ehlert, S. Grimme, M. Bursch,
     Phys. Chem. Chem. Phys., 2023, 25, 17860-17868. DOI: 10.1039/D3CP02178E
   
   for DIPRO refer to:
   * J. Kohn, N. Gildemeister, S. Grimme, D. Fazzi, A. Hansen,
     J. Chem. Phys., 2023, just accepted.
   
   for PTB refer to:
   * S. Grimme, M. Mueller, A. Hansen, J. Chem. Phys., 2023, 158, 124111.
     DOI: 10.1063/5.0137838
   
   with help from (in alphabetical order)
   P. Atkinson, C. Bannwarth, F. Bohle, G. Brandenburg, E. Caldeweyher
   M. Checinski, S. Dohm, S. Ehlert, S. Ehrlich, I. Gerasimov, C. Hölzer
   A. Katbashev, J. Kohn, J. Koopman, C. Lavigne, S. Lehtola, F. März, M. Müller,
   F. Musil, H. Neugebauer, J. Pisarek, C. Plett, P. Pracht, F. Pultar,
   J. Seibert, P. Shushkov, S. Spicher, M. Stahn, M. Steiner, T. Strunk,
   J. Stückrath, T. Rose, and J. Unsleber
   
 * started run on 2025/07/14 at 11:38:08.224     
   ID    Z sym.   atoms
    1   15 P      1
    2    6 C      2, 5, 9-14, 20, 23
    3    1 H      3, 4, 6-8, 15-19, 21, 22, 24-26

           -------------------------------------------------
          |                Calculation Setup                |
           -------------------------------------------------

          program call               : /home/minenky/programs/xtb/xtb-dist/bin/xtb m1_00_PEt2Ph-PBE0-D3-TZ-uniMM_70.xyz --charge 0 --T --ohess extreme --cycles 5000 --acc 0.01 --iterations 5000
          coordinate file            : m1_00_PEt2Ph-PBE0-D3-TZ-uniMM_70.xyz
          omp threads                :                    12

########################################################################
[WARNING] Please study the warnings concerning your input carefully
-1- prog_main_parseArguments: Unknown option '--T' provided
########################################################################

           -------------------------------------------------
          |                 G F N 2 - x T B                 |
           -------------------------------------------------

        Reference                      10.1021/acs.jctc.8b01176
      * Hamiltonian:
        H0-scaling (s, p, d)           1.850000    2.230000    2.230000
        zeta-weighting                 0.500000
      * Dispersion:
        s8                             2.700000
        a1                             0.520000
        a2                             5.000000
        s9                             5.000000
      * Repulsion:
        kExp                           1.500000    1.000000
        rExp                           1.000000
      * Coulomb:
        alpha                          2.000000
        third order                    shell-resolved
        anisotropic                    true
        a3                             3.000000
        a5                             4.000000
        cn-shift                       1.200000
        cn-exp                         4.000000
        max-rad                        5.000000


          ...................................................
          :                      SETUP                      :
          :.................................................:
          :  # basis functions                  65          :
          :  # atomic orbitals                  64          :
          :  # shells                           38          :
          :  # electrons                        60          :
          :  max. iterations                  5000          :
          :  Hamiltonian                  GFN2-xTB          :
          :  restarted?                      false          :
          :  GBSA solvation                  false          :
          :  PC potential                    false          :
          :  electronic temp.          300.0000000     K    :
          :  accuracy                    0.0100000          :
          :  -> integral cutoff          0.4500000E+02      :
          :  -> integral neglect         0.1000000E-09      :
          :  -> SCF convergence          0.1000000E-07 Eh   :
          :  -> wf. convergence          0.1000000E-05 e    :
          :  Broyden damping             0.4000000          :
          :  net charge                          0          :
          :  unpaired electrons                  0          :
          ...................................................

 iter      E             dE          RMSdq      gap      omega  full diag
   1    -32.0012462 -0.320012E+02  0.368E+00    4.07       0.0  T
   2    -32.0439908 -0.427446E-01  0.222E+00    3.57       1.0  T
   3    -32.0435707  0.420092E-03  0.883E-01    3.28       1.0  T
   4    -32.0446174 -0.104672E-02  0.302E-01    3.31       1.0  T
   5    -32.0462168 -0.159937E-02  0.111E-01    3.36       1.0  T
   6    -32.0463988 -0.181951E-03  0.415E-02    3.34       1.0  T
   7    -32.0464119 -0.131914E-04  0.162E-02    3.35       1.2  T
   8    -32.0464126 -0.641872E-06  0.679E-03    3.35       2.9  T
   9    -32.0464131 -0.557168E-06  0.150E-03    3.35      13.1  T
  10    -32.0464132 -0.240972E-07  0.663E-04    3.35      29.6  T
  11    -32.0464132 -0.971340E-09  0.301E-04    3.35      65.1  T
  12    -32.0464132 -0.788908E-09  0.508E-05    3.35     386.3  T
  13    -32.0464132 -0.284928E-11  0.218E-05    3.35     900.7  T
  14    -32.0464132 -0.254374E-11  0.853E-06    3.35    2298.5  T
  15    -32.0464132 -0.177636E-12  0.288E-06    3.35    6816.8  T

   *** convergence criteria satisfied after 15 iterations ***

         #    Occupation            Energy/Eh            Energy/eV
      -------------------------------------------------------------
         1        2.0000           -0.6595582             -17.9475
       ...           ...                  ...                  ...
        24        2.0000           -0.4375007             -11.9050
        25        2.0000           -0.4231209             -11.5137
        26        2.0000           -0.4177381             -11.3672
        27        2.0000           -0.4053835             -11.0310
        28        2.0000           -0.3981883             -10.8353
        29        2.0000           -0.3971317             -10.8065
        30        2.0000           -0.3567925              -9.7088 (HOMO)
        31                         -0.2336822              -6.3588 (LUMO)
        32                         -0.2226766              -6.0593
        33                         -0.1533834              -4.1738
        34                         -0.1350085              -3.6738
        35                         -0.0904513              -2.4613
       ...                                ...                  ...
        64                          0.7986392              21.7321
      -------------------------------------------------------------
                  HL-Gap            0.1231103 Eh            3.3500 eV
             Fermi-level           -0.2952374 Eh           -8.0338 eV

 SCC (total)                   0 d,  0 h,  0 min,  0.087 sec
 SCC setup                      ...        0 min,  0.000 sec (  0.148%)
 Dispersion                     ...        0 min,  0.000 sec (  0.154%)
 classical contributions        ...        0 min,  0.000 sec (  0.011%)
 integral evaluation            ...        0 min,  0.002 sec (  2.129%)
 iterations                     ...        0 min,  0.083 sec ( 95.353%)
 molecular gradient             ...        0 min,  0.002 sec (  2.090%)
 printout                       ...        0 min,  0.000 sec (  0.095%)

         :::::::::::::::::::::::::::::::::::::::::::::::::::::
         ::                     SUMMARY                     ::
         :::::::::::::::::::::::::::::::::::::::::::::::::::::
         :: total energy             -31.531040758720 Eh    ::
         :: gradient norm              0.055531125451 Eh/a0 ::
         :: HOMO-LUMO gap              3.350002207651 eV    ::
         ::.................................................::
         :: SCC energy               -32.046210795770 Eh    ::
         :: -> isotropic ES            0.004640250230 Eh    ::
         :: -> anisotropic ES          0.005403795210 Eh    ::
         :: -> anisotropic XC          0.022472552529 Eh    ::
         :: -> dispersion             -0.024002413127 Eh    ::
         :: repulsion energy           0.515170037050 Eh    ::
         :: add. restraining           0.000000000000 Eh    ::
         :: total charge               0.000000000000 e     ::
         :::::::::::::::::::::::::::::::::::::::::::::::::::::

      ----------------------------------------------------------- 
     |                   =====================                   |
     |                        A N C O P T                        |
     |                   =====================                   |
     |               Approximate Normal Coordinate               |
     |                Rational Function Optimizer                |
      ----------------------------------------------------------- 
      ----------------------------------------------------------- 
     |                   =====================                   |
     |                        A N C O P T                        |
     |                   =====================                   |
     |               Approximate Normal Coordinate               |
     |                Rational Function Optimizer                |
      ----------------------------------------------------------- 

          ...................................................
          :                      SETUP                      :
          :.................................................:
          :   optimization level           extreme          :
          :   max. optcycles                  5000          :
          :   ANC micro-cycles                  20          :
          :   degrees of freedom                72          :
          :.................................................:
          :   RF solver                   davidson          :
          :   write xtbopt.log                true          :
          :   linear?                        false          :
          :   energy convergence         0.5000000E-07 Eh   :
          :   grad. convergence          0.5000000E-04 Eh/α :
          :   maxmium RF displ.          1.0000000          :
          :   Hlow (freq-cutoff)         0.1000000E-01      :
          :   Hmax (freq-cutoff)         5.0000000          :
          :   S6 in model hess.         20.0000000          :
          ...................................................

generating ANC from model Hessian ...
Using Lindh-Hessian (1995)
 Shifting diagonal of input Hessian by   8.903987265727779E-003
 Lowest  eigenvalues of input Hessian
    0.000000    0.000000    0.000000    0.000000    0.000000    0.000000
    0.010000    0.010381    0.010769    0.011051    0.012448    0.012904
    0.016626    0.018042    0.019188    0.020725    0.022315    0.026044
 Highest eigenvalues
    1.347211    1.534865    1.562041    1.863589    1.965577    1.985804
 

........................................................................
.............................. CYCLE    1 ..............................
........................................................................

 iter      E             dE          RMSdq      gap      omega  full diag
   1    -32.0464132 -0.320464E+02  0.132E-06    3.35       0.0  T
   2    -32.0464132  0.000000E+00  0.768E-07    3.35   25521.8  T
   3    -32.0464132  0.710543E-14  0.480E-07    3.35   40893.1  T
     SCC iter.                  ...        0 min,  0.075 sec
     gradient                   ...        0 min,  0.002 sec
 * total energy  :   -31.5310408 Eh     change       -0.1207923E-12 Eh
   gradient norm :     0.0555311 Eh/α   predicted     0.0000000E+00 (-100.00%)
   displ. norm   :     0.6454387 α      lambda       -0.2473146E-01
   maximum displ.:     0.3798013 α      in ANC's #12, #6, #10, ...

........................................................................
.............................. CYCLE    2 ..............................
........................................................................

 iter      E             dE          RMSdq      gap      omega  full diag
   1    -32.0624598 -0.320625E+02  0.400E-01    3.51       0.0  T
   2    -32.0627029 -0.243038E-03  0.191E-01    3.53       1.0  T
   3    -32.0627262 -0.233298E-04  0.742E-02    3.56       1.0  T
   4    -32.0627270 -0.848963E-06  0.306E-02    3.56       1.0  T
   5    -32.0627344 -0.741097E-05  0.107E-02    3.56       1.8  T
   6    -32.0627364 -0.193536E-05  0.403E-03    3.56       4.9  T
   7    -32.0627364 -0.235212E-07  0.147E-03    3.56      13.3  T
   8    -32.0627364 -0.831899E-08  0.599E-04    3.56      32.7  T
   9    -32.0627364 -0.615911E-08  0.186E-04    3.56     105.5  T
  10    -32.0627364 -0.241059E-09  0.670E-05    3.56     292.7  T
  11    -32.0627364 -0.245919E-10  0.315E-05    3.56     623.2  T
  12    -32.0627364 -0.712674E-11  0.112E-05    3.56    1746.2  T
  13    -32.0627364 -0.184741E-12  0.358E-06    3.56    5483.5  T
  14    -32.0627364 -0.355271E-13  0.152E-06    3.56   12937.4  T
     SCC iter.                  ...        0 min,  0.076 sec
     gradient                   ...        0 min,  0.002 sec
 * total energy  :   -31.5451405 Eh     change       -0.1409970E-01 Eh
   gradient norm :     0.0186134 Eh/α   predicted    -0.1751719E-01 (  24.24%)
   displ. norm   :     0.3912445 α      lambda       -0.4107407E-02
   maximum displ.:     0.2075899 α      in ANC's #6, #10, #12, ...

........................................................................
.............................. CYCLE    3 ..............................
........................................................................

 iter      E             dE          RMSdq      gap      omega  full diag
   1    -32.0652126 -0.320652E+02  0.173E-01    3.55       0.0  T
   2    -32.0652236 -0.110808E-04  0.994E-02    3.54       1.0  T
   3    -32.0652232  0.479418E-06  0.220E-02    3.54       1.0  T
   4    -32.0652251 -0.195632E-05  0.451E-03    3.54       4.4  T
   5    -32.0652252 -0.826915E-07  0.193E-03    3.54      10.2  T
   6    -32.0652252 -0.347962E-07  0.102E-03    3.54      19.2  T
   7    -32.0652252 -0.721699E-08  0.399E-04    3.54      49.1  T
   8    -32.0652252 -0.737920E-09  0.131E-04    3.54     149.6  T
   9    -32.0652252 -0.819753E-10  0.628E-05    3.54     312.5  T
  10    -32.0652252 -0.251887E-10  0.200E-05    3.54     981.0  T
  11    -32.0652252 -0.108713E-11  0.913E-06    3.54    2149.1  T
  12    -32.0652252 -0.696332E-12  0.409E-06    3.54    4800.7  T
     SCC iter.                  ...        0 min,  0.076 sec
     gradient                   ...        0 min,  0.002 sec
 * total energy  :   -31.5481710 Eh     change       -0.3030552E-02 Eh
   gradient norm :     0.0091511 Eh/α   predicted    -0.2368084E-02 ( -21.86%)
   displ. norm   :     0.4496291 α      lambda       -0.2445816E-02
   maximum displ.:     0.2796312 α      in ANC's #6, #10, #2, ...

........................................................................
.............................. CYCLE    4 ..............................
........................................................................

 iter      E             dE          RMSdq      gap      omega  full diag
   1    -32.0666331 -0.320666E+02  0.180E-01    3.57       0.0  T
   2    -32.0666435 -0.104336E-04  0.101E-01    3.57       1.0  T
   3    -32.0666426  0.916161E-06  0.200E-02    3.58       1.0  T
   4    -32.0666443 -0.169910E-05  0.903E-03    3.58       2.2  T
   5    -32.0666451 -0.818227E-06  0.279E-03    3.57       7.0  T
   6    -32.0666453 -0.155170E-06  0.867E-04    3.57      22.6  T
   7    -32.0666453 -0.432792E-09  0.401E-04    3.57      48.9  T
   8    -32.0666453 -0.998149E-09  0.142E-04    3.57     138.4  T
   9    -32.0666453 -0.353651E-09  0.499E-05    3.57     393.1  T
  10    -32.0666453 -0.440536E-11  0.217E-05    3.57     904.0  T
  11    -32.0666453 -0.176925E-11  0.832E-06    3.57    2356.5  T
  12    -32.0666453 -0.227374E-12  0.309E-06    3.57    6340.5  T
     SCC iter.                  ...        0 min,  0.075 sec
     gradient                   ...        0 min,  0.002 sec
 * total energy  :   -31.5498767 Eh     change       -0.1705705E-02 Eh
   gradient norm :     0.0073783 Eh/α   predicted    -0.1470139E-02 ( -13.81%)
   displ. norm   :     0.3964340 α      lambda       -0.1106440E-02
   maximum displ.:     0.2801065 α      in ANC's #6, #2, #10, ...

........................................................................
.............................. CYCLE    5 ..............................
........................................................................

 iter      E             dE          RMSdq      gap      omega  full diag
   1    -32.0681625 -0.320682E+02  0.146E-01    3.55       0.0  T
   2    -32.0681655 -0.307451E-05  0.847E-02    3.55       1.0  T
   3    -32.0681649  0.692885E-06  0.983E-03    3.55       2.0  T
   4    -32.0681657 -0.851735E-06  0.502E-03    3.55       3.9  T
   5    -32.0681661 -0.428152E-06  0.138E-03    3.55      14.2  T
   6    -32.0681661 -0.502285E-08  0.569E-04    3.55      34.5  T
   7    -32.0681661 -0.396696E-08  0.213E-04    3.55      91.9  T
   8    -32.0681661 -0.235474E-09  0.789E-05    3.55     248.4  T
   9    -32.0681661 -0.522604E-10  0.335E-05    3.55     584.6  T
  10    -32.0681661 -0.649436E-11  0.114E-05    3.55    1719.5  T
  11    -32.0681661 -0.980549E-12  0.476E-06    3.55    4122.1  T
  12    -32.0681661 -0.639488E-13  0.210E-06    3.55    9323.1  T
     SCC iter.                  ...        0 min,  0.074 sec
     gradient                   ...        0 min,  0.002 sec
 * total energy  :   -31.5506751 Eh     change       -0.7983420E-03 Eh
   gradient norm :     0.0067108 Eh/α   predicted    -0.6401644E-03 ( -19.81%)
   displ. norm   :     0.3215736 α      lambda       -0.5765341E-03
   maximum displ.:     0.2180854 α      in ANC's #6, #2, #8, ...

........................................................................
.............................. CYCLE    6 ..............................
........................................................................

 iter      E             dE          RMSdq      gap      omega  full diag
   1    -32.0694966 -0.320695E+02  0.142E-01    3.55       0.0  T
   2    -32.0694991 -0.243384E-05  0.812E-02    3.56       1.0  T
   3    -32.0694988  0.295555E-06  0.897E-03    3.56       2.2  T
   4    -32.0694992 -0.463835E-06  0.421E-03    3.56       4.7  T
   5    -32.0694995 -0.251453E-06  0.107E-03    3.56      18.3  T
   6    -32.0694995 -0.739727E-08  0.487E-04    3.56      40.3  T
   7    -32.0694995 -0.544411E-09  0.155E-04    3.56     126.4  T
   8    -32.0694995 -0.151985E-09  0.625E-05    3.56     314.0  T
   9    -32.0694995 -0.476419E-10  0.273E-05    3.56     718.4  T
  10    -32.0694995 -0.588329E-11  0.127E-05    3.56    1542.5  T
  11    -32.0694995 -0.554223E-12  0.420E-06    3.56    4674.2  T
  12    -32.0694995 -0.497380E-13  0.142E-06    3.56   13817.3  T
     SCC iter.                  ...        0 min,  0.074 sec
     gradient                   ...        0 min,  0.002 sec
 * total energy  :   -31.5511087 Eh     change       -0.4336053E-03 Eh
   gradient norm :     0.0048542 Eh/α   predicted    -0.3180800E-03 ( -26.64%)
   displ. norm   :     0.3150304 α      lambda       -0.3843783E-03
   maximum displ.:     0.1961068 α      in ANC's #6, #2, #3, ...

........................................................................
.............................. CYCLE    7 ..............................
........................................................................

 iter      E             dE          RMSdq      gap      omega  full diag
   1    -32.0706178 -0.320706E+02  0.144E-01    3.55       0.0  T
   2    -32.0706206 -0.276365E-05  0.830E-02    3.55       1.0  T
   3    -32.0706205  0.840220E-07  0.885E-03    3.55       2.2  T
   4    -32.0706208 -0.320720E-06  0.358E-03    3.55       5.5  T
   5    -32.0706209 -0.145704E-06  0.117E-03    3.55      16.8  T
   6    -32.0706210 -0.140306E-07  0.528E-04    3.55      37.2  T
   7    -32.0706210 -0.408640E-09  0.127E-04    3.55     154.9  T
   8    -32.0706210 -0.120252E-09  0.538E-05    3.55     364.5  T
   9    -32.0706210 -0.429878E-10  0.201E-05    3.55     976.1  T
  10    -32.0706210 -0.397904E-11  0.917E-06    3.55    2138.0  T
  11    -32.0706210 -0.312639E-12  0.293E-06    3.55    6699.0  T
     SCC iter.                  ...        0 min,  0.074 sec
     gradient                   ...        0 min,  0.002 sec
 * total energy  :   -31.5513927 Eh     change       -0.2839965E-03 Eh
   gradient norm :     0.0034877 Eh/α   predicted    -0.2112651E-03 ( -25.61%)
   displ. norm   :     0.2785609 α      lambda       -0.2280753E-03
   maximum displ.:     0.1851862 α      in ANC's #2, #6, #1, ...

........................................................................
.............................. CYCLE    8 ..............................
........................................................................

 iter      E             dE          RMSdq      gap      omega  full diag
   1    -32.0710403 -0.320710E+02  0.129E-01    3.55       0.0  T
   2    -32.0710420 -0.172332E-05  0.740E-02    3.55       1.0  T
   3    -32.0710420  0.227599E-07  0.694E-03    3.55       2.8  T
   4    -32.0710421 -0.151120E-06  0.303E-03    3.55       6.5  T
   5    -32.0710422 -0.124143E-06  0.884E-04    3.55      22.2  T
   6    -32.0710422 -0.698517E-08  0.437E-04    3.55      44.9  T
   7    -32.0710422 -0.319893E-09  0.753E-05    3.55     260.4  T
   8    -32.0710422 -0.739462E-10  0.328E-05    3.55     597.1  T
   9    -32.0710422 -0.166054E-10  0.123E-05    3.55    1588.7  T
  10    -32.0710422 -0.125766E-11  0.557E-06    3.55    3518.5  T
  11    -32.0710422 -0.639488E-13  0.147E-06    3.55   13374.3  T
     SCC iter.                  ...        0 min,  0.074 sec
     gradient                   ...        0 min,  0.002 sec
 * total energy  :   -31.5515716 Eh     change       -0.1789478E-03 Eh
   gradient norm :     0.0038937 Eh/α   predicted    -0.1228867E-03 ( -31.33%)
   displ. norm   :     0.2611269 α      lambda       -0.1845077E-03
   maximum displ.:     0.1783279 α      in ANC's #2, #1, #3, ...

........................................................................
.............................. CYCLE    9 ..............................
........................................................................

 iter      E             dE          RMSdq      gap      omega  full diag
   1    -32.0716429 -0.320716E+02  0.112E-01    3.55       0.0  T
   2    -32.0716440 -0.107145E-05  0.644E-02    3.55       1.0  T
   3    -32.0716440  0.331349E-07  0.544E-03    3.55       3.6  T
   4    -32.0716440 -0.781974E-07  0.283E-03    3.55       6.9  T
   5    -32.0716442 -0.142928E-06  0.730E-04    3.55      26.9  T
   6    -32.0716442 -0.359081E-08  0.371E-04    3.55      52.8  T
   7    -32.0716442 -0.326303E-09  0.777E-05    3.55     252.5  T
   8    -32.0716442 -0.706777E-10  0.291E-05    3.55     673.5  T
   9    -32.0716442 -0.122711E-10  0.101E-05    3.55    1939.4  T
  10    -32.0716442 -0.753175E-12  0.478E-06    3.55    4102.4  T
  11    -32.0716442 -0.781597E-13  0.155E-06    3.55   12626.8  T
     SCC iter.                  ...        0 min,  0.075 sec
     gradient                   ...        0 min,  0.002 sec
 * total energy  :   -31.5517281 Eh     change       -0.1565283E-03 Eh
   gradient norm :     0.0036546 Eh/α   predicted    -0.9854500E-04 ( -37.04%)
   displ. norm   :     0.3069406 α      lambda       -0.2062182E-03
   maximum displ.:     0.2073496 α      in ANC's #2, #1, #3, ...

........................................................................
.............................. CYCLE   10 ..............................
........................................................................

 iter      E             dE          RMSdq      gap      omega  full diag
   1    -32.0716630 -0.320717E+02  0.120E-01    3.56       0.0  T
   2    -32.0716640 -0.936010E-06  0.696E-02    3.56       1.0  T
   3    -32.0716638  0.117236E-06  0.540E-03    3.56       3.6  T
   4    -32.0716640 -0.163772E-06  0.313E-03    3.56       6.3  T
   5    -32.0716642 -0.171224E-06  0.672E-04    3.56      29.2  T
   6    -32.0716642 -0.970125E-09  0.332E-04    3.56      59.1  T
   7    -32.0716642 -0.367251E-09  0.742E-05    3.56     264.3  T
   8    -32.0716642 -0.112053E-09  0.292E-05    3.56     671.7  T
   9    -32.0716642 -0.422062E-11  0.117E-05    3.56    1672.5  T
  10    -32.0716642 -0.305533E-12  0.343E-06    3.56    5711.6  T
  11    -32.0716642 -0.142109E-13  0.139E-06    3.56   14115.8  T
     SCC iter.                  ...        0 min,  0.074 sec
     gradient                   ...        0 min,  0.002 sec
 * total energy  :   -31.5519074 Eh     change       -0.1792485E-03 Eh
   gradient norm :     0.0032465 Eh/α   predicted    -0.1128256E-03 ( -37.06%)
   displ. norm   :     0.4253589 α      lambda       -0.2654573E-03
   maximum displ.:     0.2796933 α      in ANC's #2, #1, #3, ...

........................................................................
.............................. CYCLE   11 ..............................
........................................................................

 iter      E             dE          RMSdq      gap      omega  full diag
   1    -32.0707832 -0.320708E+02  0.155E-01    3.57       0.0  T
   2    -32.0707845 -0.129303E-05  0.905E-02    3.57       1.0  T
   3    -32.0707841  0.415970E-06  0.723E-03    3.57       2.7  T
   4    -32.0707847 -0.634583E-06  0.344E-03    3.57       5.7  T
   5    -32.0707849 -0.191349E-06  0.993E-04    3.57      19.8  T
   6    -32.0707849 -0.612827E-08  0.486E-04    3.57      40.3  T
   7    -32.0707849 -0.606470E-09  0.100E-04    3.57     195.2  T
   8    -32.0707849 -0.168022E-09  0.432E-05    3.57     454.3  T
   9    -32.0707849 -0.116316E-10  0.186E-05    3.57    1056.0  T
  10    -32.0707849 -0.142109E-11  0.549E-06    3.57    3575.1  T
  11    -32.0707849 -0.113687E-12  0.232E-06    3.57    8453.7  T
     SCC iter.                  ...        0 min,  0.074 sec
     gradient                   ...        0 min,  0.002 sec
 * total energy  :   -31.5521285 Eh     change       -0.2210844E-03 Eh
   gradient norm :     0.0041645 Eh/α   predicted    -0.1567434E-03 ( -29.10%)
   displ. norm   :     0.5133927 α      lambda       -0.2889667E-03
   maximum displ.:     0.3222907 α      in ANC's #2, #1, #3, ...

........................................................................
.............................. CYCLE   12 ..............................
........................................................................

 iter      E             dE          RMSdq      gap      omega  full diag
   1    -32.0691853 -0.320692E+02  0.179E-01    3.57       0.0  T
   2    -32.0691870 -0.170026E-05  0.105E-01    3.57       1.0  T
   3    -32.0691866  0.465968E-06  0.856E-03    3.57       2.3  T
   4    -32.0691874 -0.857731E-06  0.347E-03    3.57       5.6  T
   5    -32.0691876 -0.137021E-06  0.128E-03    3.57      15.3  T
   6    -32.0691876 -0.140001E-07  0.626E-04    3.57      31.3  T
   7    -32.0691876 -0.927315E-09  0.128E-04    3.57     152.8  T
   8    -32.0691876 -0.176257E-09  0.570E-05    3.57     344.0  T
   9    -32.0691876 -0.353069E-10  0.251E-05    3.57     780.6  T
  10    -32.0691876 -0.103739E-11  0.745E-06    3.57    2631.4  T
  11    -32.0691876 -0.262901E-12  0.265E-06    3.57    7409.6  T
     SCC iter.                  ...        0 min,  0.074 sec
     gradient                   ...        0 min,  0.002 sec
 * total energy  :   -31.5523507 Eh     change       -0.2222413E-03 Eh
   gradient norm :     0.0064090 Eh/α   predicted    -0.1825655E-03 ( -17.85%)
   displ. norm   :     0.4371504 α      lambda       -0.2822596E-03
   maximum displ.:     0.2731607 α      in ANC's #1, #2, #4, ...

........................................................................
.............................. CYCLE   13 ..............................
........................................................................

 iter      E             dE          RMSdq      gap      omega  full diag
   1    -32.0696439 -0.320696E+02  0.139E-01    3.59       0.0  T
   2    -32.0696450 -0.108795E-05  0.819E-02    3.59       1.0  T
   3    -32.0696440  0.104611E-05  0.908E-03    3.59       2.2  T
   4    -32.0696454 -0.145278E-05  0.249E-03    3.59       7.9  T
   5    -32.0696455 -0.447887E-07  0.111E-03    3.59      17.7  T
   6    -32.0696455 -0.993063E-08  0.479E-04    3.59      41.0  T
   7    -32.0696455 -0.980954E-09  0.132E-04    3.59     148.2  T
   8    -32.0696455 -0.144084E-09  0.506E-05    3.59     387.3  T
   9    -32.0696455 -0.328342E-10  0.191E-05    3.59    1025.6  T
  10    -32.0696455 -0.952127E-12  0.722E-06    3.59    2715.2  T
  11    -32.0696455 -0.554223E-12  0.305E-06    3.59    6426.5  T
     SCC iter.                  ...        0 min,  0.081 sec
     gradient                   ...        0 min,  0.002 sec
 * total energy  :   -31.5525737 Eh     change       -0.2229695E-03 Eh
   gradient norm :     0.0072431 Eh/α   predicted    -0.1681001E-03 ( -24.61%)
   displ. norm   :     0.4490619 α      lambda       -0.3710039E-03
   maximum displ.:     0.2972731 α      in ANC's #1, #2, #4, ...

........................................................................
.............................. CYCLE   14 ..............................
........................................................................

 iter      E             dE          RMSdq      gap      omega  full diag
   1    -32.0717302 -0.320717E+02  0.139E-01    3.60       0.0  T
   2    -32.0717312 -0.100608E-05  0.820E-02    3.60       1.0  T
   3    -32.0717296  0.154636E-05  0.976E-03    3.60       2.0  T
   4    -32.0717316 -0.200408E-05  0.223E-03    3.60       8.8  T
   5    -32.0717317 -0.337682E-07  0.107E-03    3.60      18.3  T
   6    -32.0717317 -0.652322E-08  0.405E-04    3.60      48.4  T
   7    -32.0717317 -0.445574E-09  0.113E-04    3.60     173.5  T
   8    -32.0717317 -0.147566E-09  0.478E-05    3.60     410.1  T
   9    -32.0717317 -0.252172E-10  0.200E-05    3.60     978.4  T
  10    -32.0717317 -0.171241E-11  0.746E-06    3.60    2627.3  T
  11    -32.0717317 -0.419220E-12  0.226E-06    3.60    8692.3  T
     SCC iter.                  ...        0 min,  0.074 sec
     gradient                   ...        0 min,  0.002 sec
 * total energy  :   -31.5528708 Eh     change       -0.2970781E-03 Eh
   gradient norm :     0.0058012 Eh/α   predicted    -0.2229114E-03 ( -24.97%)
   displ. norm   :     0.5855456 α      lambda       -0.4130287E-03
   maximum displ.:     0.4038827 α      in ANC's #1, #2, #4, ...

........................................................................
.............................. CYCLE   15 ..............................
........................................................................

 iter      E             dE          RMSdq      gap      omega  full diag
   1    -32.0701613 -0.320702E+02  0.181E-01    3.60       0.0  T
   2    -32.0701639 -0.262637E-05  0.106E-01    3.60       1.0  T
   3    -32.0701622  0.170032E-05  0.131E-02    3.60       1.5  T
   4    -32.0701646 -0.238755E-05  0.389E-03    3.60       5.0  T
   5    -32.0701647 -0.122125E-06  0.185E-03    3.60      10.6  T
   6    -32.0701648 -0.346778E-07  0.791E-04    3.60      24.8  T
   7    -32.0701648 -0.810672E-09  0.171E-04    3.60     114.4  T
   8    -32.0701648 -0.260165E-09  0.746E-05    3.60     262.8  T
   9    -32.0701648 -0.727098E-10  0.299E-05    3.60     655.9  T
  10    -32.0701648 -0.588329E-11  0.951E-06    3.60    2061.7  T
  11    -32.0701648 -0.241585E-12  0.276E-06    3.60    7114.0  T
     SCC iter.                  ...        0 min,  0.075 sec
     gradient                   ...        0 min,  0.002 sec
 * total energy  :   -31.5531942 Eh     change       -0.3233917E-03 Eh
   gradient norm :     0.0059641 Eh/α   predicted    -0.2773226E-03 ( -14.25%)
   displ. norm   :     0.4696120 α      lambda       -0.5310817E-03
   maximum displ.:     0.3538675 α      in ANC's #1, #4, #5, ...

........................................................................
.............................. CYCLE   16 ..............................
........................................................................

 iter      E             dE          RMSdq      gap      omega  full diag
   1    -32.0790614 -0.320791E+02  0.146E-01    3.63       0.0  T
   2    -32.0790632 -0.188825E-05  0.861E-02    3.63       1.0  T
   3    -32.0790596  0.366735E-05  0.143E-02    3.63       1.4  T
   4    -32.0790641 -0.453263E-05  0.274E-03    3.63       7.1  T
   5    -32.0790641 -0.368817E-07  0.151E-03    3.63      13.0  T
   6    -32.0790642 -0.200635E-07  0.586E-04    3.63      33.5  T
   7    -32.0790642 -0.131558E-08  0.139E-04    3.63     140.7  T
   8    -32.0790642 -0.545626E-10  0.710E-05    3.63     276.4  T
   9    -32.0790642 -0.470450E-10  0.280E-05    3.63     701.2  T
  10    -32.0790642 -0.938627E-11  0.930E-06    3.63    2109.5  T
  11    -32.0790642 -0.220268E-12  0.311E-06    3.63    6302.9  T
     SCC iter.                  ...        0 min,  0.074 sec
     gradient                   ...        0 min,  0.002 sec
 * total energy  :   -31.5533969 Eh     change       -0.2027782E-03 Eh
   gradient norm :     0.0097136 Eh/α   predicted    -0.3241065E-03 (  59.83%)
   displ. norm   :     0.6472032 α      lambda       -0.5924688E-03
   maximum displ.:     0.4765612 α      in ANC's #1, #2, #4, ...

........................................................................
.............................. CYCLE   17 ..............................
........................................................................

 iter      E             dE          RMSdq      gap      omega  full diag
   1    -32.0692087 -0.320692E+02  0.208E-01    3.59       0.0  T
   2    -32.0692168 -0.806058E-05  0.120E-01    3.60       1.0  T
   3    -32.0692145  0.229285E-05  0.230E-02    3.60       1.0  T
   4    -32.0692182 -0.368652E-05  0.581E-03    3.60       3.4  T
   5    -32.0692182 -0.218969E-07  0.334E-03    3.60       5.9  T
   6    -32.0692183 -0.141989E-06  0.154E-03    3.60      12.7  T
   7    -32.0692183 -0.817874E-08  0.437E-04    3.60      44.9  T
   8    -32.0692183 -0.886494E-09  0.867E-05    3.60     226.2  T
   9    -32.0692183 -0.935145E-10  0.372E-05    3.60     526.6  T
  10    -32.0692183 -0.299849E-11  0.168E-05    3.60    1166.2  T
  11    -32.0692183 -0.303402E-11  0.587E-06    3.60    3342.5  T
  12    -32.0692183 -0.710543E-14  0.167E-06    3.60   11724.9  T
     SCC iter.                  ...        0 min,  0.074 sec
     gradient                   ...        0 min,  0.002 sec
 * total energy  :   -31.5536636 Eh     change       -0.2666328E-03 Eh
   gradient norm :     0.0107523 Eh/α   predicted    -0.4203209E-03 (  57.64%)
   displ. norm   :     0.1205633 α      lambda       -0.3342918E-03
   maximum displ.:     0.0611094 α      in ANC's #4, #5, #6, ...

........................................................................
.............................. CYCLE   18 ..............................
........................................................................

 iter      E             dE          RMSdq      gap      omega  full diag
   1    -32.0706630 -0.320707E+02  0.624E-02    3.59       0.0  T
   2    -32.0706651 -0.203841E-05  0.340E-02    3.59       1.0  T
   3    -32.0706647  0.348593E-06  0.124E-02    3.59       1.6  T
   4    -32.0706654 -0.665194E-06  0.258E-03    3.59       7.6  T
   5    -32.0706654 -0.249738E-08  0.153E-03    3.59      12.8  T
   6    -32.0706654 -0.163798E-07  0.589E-04    3.59      33.3  T
   7    -32.0706654 -0.380625E-08  0.181E-04    3.59     108.6  T
   8    -32.0706654 -0.167489E-09  0.562E-05    3.59     349.1  T
   9    -32.0706654 -0.255724E-10  0.219E-05    3.59     897.5  T
  10    -32.0706654 -0.497380E-12  0.825E-06    3.59    2377.2  T
  11    -32.0706654 -0.909495E-12  0.229E-06    3.59    8560.5  T
     SCC iter.                  ...        0 min,  0.074 sec
     gradient                   ...        0 min,  0.002 sec
 * total energy  :   -31.5538317 Eh     change       -0.1681496E-03 Eh
   gradient norm :     0.0080618 Eh/α   predicted    -0.1695773E-03 (   0.85%)
   displ. norm   :     0.3066970 α      lambda       -0.3969606E-03
   maximum displ.:     0.2495531 α      in ANC's #1, #7, #3, ...

........................................................................
.............................. CYCLE   19 ..............................
........................................................................

 iter      E             dE          RMSdq      gap      omega  full diag
   1    -32.0741977 -0.320742E+02  0.951E-02    3.62       0.0  T
   2    -32.0741988 -0.112523E-05  0.559E-02    3.62       1.0  T
   3    -32.0741978  0.979239E-06  0.820E-03    3.62       2.4  T
   4    -32.0741991 -0.124195E-05  0.234E-03    3.62       8.4  T
   5    -32.0741992 -0.623761E-07  0.921E-04    3.62      21.3  T
   6    -32.0741992 -0.646246E-08  0.450E-04    3.62      43.6  T
   7    -32.0741992 -0.111790E-08  0.149E-04    3.62     131.5  T
   8    -32.0741992 -0.134534E-09  0.426E-05    3.62     460.7  T
   9    -32.0741992 -0.179696E-10  0.164E-05    3.62    1195.4  T
  10    -32.0741992 -0.215294E-11  0.599E-06    3.62    3274.8  T
  11    -32.0741992 -0.312639E-12  0.213E-06    3.62    9203.7  T
     SCC iter.                  ...        0 min,  0.074 sec
     gradient                   ...        0 min,  0.002 sec
 * total energy  :   -31.5540926 Eh     change       -0.2608914E-03 Eh
   gradient norm :     0.0064374 Eh/α   predicted    -0.2171579E-03 ( -16.76%)
   displ. norm   :     0.5164307 α      lambda       -0.4278789E-03
   maximum displ.:     0.4240973 α      in ANC's #1, #7, #3, ...

........................................................................
.............................. CYCLE   20 ..............................
........................................................................

 iter      E             dE          RMSdq      gap      omega  full diag
   1    -32.0745874 -0.320746E+02  0.155E-01    3.63       0.0  T
   2    -32.0745906 -0.314483E-05  0.905E-02    3.63       1.0  T
   3    -32.0745892  0.141172E-05  0.130E-02    3.63       1.5  T
   4    -32.0745911 -0.188635E-05  0.423E-03    3.63       4.6  T
   5    -32.0745913 -0.217969E-06  0.175E-03    3.63      11.2  T
   6    -32.0745913 -0.384416E-07  0.885E-04    3.63      22.2  T
   7    -32.0745913 -0.230470E-08  0.242E-04    3.63      81.2  T
   8    -32.0745913 -0.297447E-09  0.587E-05    3.63     333.9  T
   9    -32.0745913 -0.489564E-10  0.228E-05    3.63     860.3  T
  10    -32.0745913 -0.235190E-11  0.113E-05    3.63    1738.1  T
  11    -32.0745913 -0.547118E-12  0.553E-06    3.63    3549.4  T
  12    -32.0745913 -0.156319E-12  0.116E-06    3.63   16937.5  T
     SCC iter.                  ...        0 min,  0.075 sec
     gradient                   ...        0 min,  0.002 sec
 * total energy  :   -31.5543471 Eh     change       -0.2545012E-03 Eh
   gradient norm :     0.0077489 Eh/α   predicted    -0.2709987E-03 (   6.48%)
   displ. norm   :     0.4301046 α      lambda       -0.3144722E-03
   maximum displ.:     0.3360271 α      in ANC's #1, #7, #3, ...
 * RMSD in coord.:     1.2706122 α      energy gain  -0.2330634E-01 Eh

generating ANC from model Hessian ...
Using Lindh-Hessian (1995)
 Shifting diagonal of input Hessian by   9.164252636574319E-003
 Lowest  eigenvalues of input Hessian
    0.000000    0.000000    0.000000    0.000000    0.000000    0.000000
    0.010000    0.010227    0.010455    0.011158    0.011808    0.012705
    0.015029    0.017164    0.017726    0.019420    0.022518    0.024105
 Highest eigenvalues
    1.358163    1.546752    1.572610    1.873159    1.976651    1.995828
 

........................................................................
.............................. CYCLE   21 ..............................
........................................................................

 iter      E             dE          RMSdq      gap      omega  full diag
   1    -32.0720388 -0.320720E+02  0.135E-01    3.60       0.0  T
   2    -32.0720420 -0.318176E-05  0.786E-02    3.61       1.0  T
   3    -32.0720397  0.230895E-05  0.137E-02    3.61       1.4  T
   4    -32.0720425 -0.282036E-05  0.383E-03    3.61       5.1  T
   5    -32.0720427 -0.221573E-06  0.152E-03    3.61      12.9  T
   6    -32.0720428 -0.485544E-07  0.677E-04    3.61      29.0  T
   7    -32.0720428 -0.832834E-09  0.220E-04    3.61      89.3  T
   8    -32.0720428 -0.618172E-09  0.614E-05    3.61     319.6  T
   9    -32.0720428 -0.492122E-10  0.196E-05    3.61     998.7  T
  10    -32.0720428 -0.112976E-11  0.866E-06    3.61    2264.6  T
  11    -32.0720428 -0.746070E-12  0.323E-06    3.61    6067.4  T
     SCC iter.                  ...        0 min,  0.074 sec
     gradient                   ...        0 min,  0.002 sec
 * total energy  :   -31.5544411 Eh     change       -0.9402795E-04 Eh
   gradient norm :     0.0120361 Eh/α   predicted     0.0000000E+00 (-100.00%)
   displ. norm   :     0.0739033 α      lambda       -0.2837940E-03
   maximum displ.:     0.0327519 α      in ANC's #10, #3, #4, ...

........................................................................
.............................. CYCLE   22 ..............................
........................................................................

 iter      E             dE          RMSdq      gap      omega  full diag
   1    -32.0749624 -0.320750E+02  0.514E-02    3.63       0.0  T
   2    -32.0749630 -0.659011E-06  0.302E-02    3.63       1.0  T
   3    -32.0749625  0.493399E-06  0.582E-03    3.63       3.4  T
   4    -32.0749632 -0.624811E-06  0.169E-03    3.63      11.6  T
   5    -32.0749632 -0.204189E-07  0.934E-04    3.63      21.0  T
   6    -32.0749632 -0.270499E-08  0.237E-04    3.63      82.9  T
   7    -32.0749632 -0.110794E-08  0.713E-05    3.63     275.0  T
   8    -32.0749632 -0.202789E-10  0.224E-05    3.63     877.2  T
   9    -32.0749632 -0.142109E-13  0.911E-06    3.63    2151.6  T
  10    -32.0749632 -0.561329E-12  0.363E-06    3.63    5403.6  T
     SCC iter.                  ...        0 min,  0.074 sec
     gradient                   ...        0 min,  0.002 sec
 * total energy  :   -31.5546242 Eh     change       -0.1830432E-03 Eh
   gradient norm :     0.0034576 Eh/α   predicted    -0.1426723E-03 ( -22.06%)
   displ. norm   :     0.0846076 α      lambda       -0.8328007E-04
   maximum displ.:     0.0432960 α      in ANC's #3, #1, #10, ...

........................................................................
.............................. CYCLE   23 ..............................
........................................................................

 iter      E             dE          RMSdq      gap      omega  full diag
   1    -32.0760590 -0.320761E+02  0.308E-02    3.63       0.0  T
   2    -32.0760592 -0.155247E-06  0.180E-02    3.63       1.1  T
   3    -32.0760590  0.196273E-06  0.319E-03    3.63       6.2  T
   4    -32.0760592 -0.241838E-06  0.734E-04    3.63      26.7  T
   5    -32.0760592 -0.497079E-08  0.378E-04    3.63      51.9  T
   6    -32.0760592 -0.705967E-09  0.145E-04    3.63     135.7  T
   7    -32.0760592 -0.230642E-10  0.456E-05    3.63     430.4  T
   8    -32.0760592 -0.144382E-10  0.159E-05    3.63    1232.9  T
   9    -32.0760592 -0.326139E-11  0.714E-06    3.63    2746.0  T
  10    -32.0760592 -0.461853E-12  0.300E-06    3.63    6536.6  T
     SCC iter.                  ...        0 min,  0.073 sec
     gradient                   ...        0 min,  0.002 sec
 * total energy  :   -31.5546825 Eh     change       -0.5832643E-04 Eh
   gradient norm :     0.0017818 Eh/α   predicted    -0.4195458E-04 ( -28.07%)
   displ. norm   :     0.1798153 α      lambda       -0.6308456E-04
   maximum displ.:     0.1001881 α      in ANC's #3, #1, #10, ...

........................................................................
.............................. CYCLE   24 ..............................
........................................................................

 iter      E             dE          RMSdq      gap      omega  full diag
   1    -32.0762027 -0.320762E+02  0.504E-02    3.64       0.0  T
   2    -32.0762030 -0.327635E-06  0.295E-02    3.64       1.0  T
   3    -32.0762028  0.227263E-06  0.465E-03    3.64       4.2  T
   4    -32.0762031 -0.302712E-06  0.126E-03    3.64      15.6  T
   5    -32.0762031 -0.137883E-07  0.662E-04    3.64      29.6  T
   6    -32.0762031 -0.261441E-08  0.226E-04    3.64      86.8  T
   7    -32.0762031 -0.585487E-10  0.680E-05    3.64     288.6  T
   8    -32.0762031 -0.391154E-10  0.298E-05    3.64     659.1  T
   9    -32.0762031 -0.172022E-10  0.126E-05    3.64    1561.1  T
  10    -32.0762031 -0.497380E-12  0.299E-06    3.64    6563.2  T
  11    -32.0762031 -0.994760E-13  0.125E-06    3.64   15647.1  T
     SCC iter.                  ...        0 min,  0.074 sec
     gradient                   ...        0 min,  0.002 sec
 * total energy  :   -31.5547492 Eh     change       -0.6673816E-04 Eh
   gradient norm :     0.0044820 Eh/α   predicted    -0.3210317E-04 ( -51.90%)
   displ. norm   :     0.1282073 α      lambda       -0.5928775E-04
   maximum displ.:     0.0775705 α      in ANC's #3, #1, #2, ...

........................................................................
.............................. CYCLE   25 ..............................
........................................................................

 iter      E             dE          RMSdq      gap      omega  full diag
   1    -32.0758411 -0.320758E+02  0.342E-02    3.64       0.0  T
   2    -32.0758413 -0.190090E-06  0.200E-02    3.64       1.0  T
   3    -32.0758413  0.350466E-07  0.284E-03    3.64       6.9  T
   4    -32.0758413 -0.603814E-07  0.845E-04    3.64      23.2  T
   5    -32.0758414 -0.663913E-08  0.386E-04    3.64      50.9  T
   6    -32.0758414 -0.130000E-08  0.159E-04    3.64     123.0  T
   7    -32.0758414 -0.410125E-10  0.493E-05    3.64     397.7  T
   8    -32.0758414 -0.110418E-10  0.165E-05    3.64    1190.8  T
   9    -32.0758414 -0.313349E-11  0.848E-06    3.64    2311.5  T
  10    -32.0758414 -0.582645E-12  0.306E-06    3.64    6410.5  T
     SCC iter.                  ...        0 min,  0.073 sec
     gradient                   ...        0 min,  0.002 sec
 * total energy  :   -31.5547999 Eh     change       -0.5065012E-04 Eh
   gradient norm :     0.0033293 Eh/α   predicted    -0.3013224E-04 ( -40.51%)
   displ. norm   :     0.1883515 α      lambda       -0.7531179E-04
   maximum displ.:     0.1173315 α      in ANC's #3, #1, #2, ...

........................................................................
.............................. CYCLE   26 ..............................
........................................................................

 iter      E             dE          RMSdq      gap      omega  full diag
   1    -32.0753219 -0.320753E+02  0.536E-02    3.64       0.0  T
   2    -32.0753223 -0.450167E-06  0.314E-02    3.65       1.0  T
   3    -32.0753222  0.106359E-06  0.440E-03    3.65       4.5  T
   4    -32.0753224 -0.168634E-06  0.128E-03    3.65      15.3  T
   5    -32.0753224 -0.133326E-07  0.597E-04    3.65      32.9  T
   6    -32.0753224 -0.413289E-08  0.235E-04    3.65      83.6  T
   7    -32.0753224 -0.106311E-09  0.717E-05    3.65     273.6  T
   8    -32.0753224 -0.145732E-10  0.234E-05    3.65     839.4  T
   9    -32.0753224 -0.380140E-11  0.116E-05    3.65    1689.1  T
  10    -32.0753224 -0.110845E-11  0.429E-06    3.65    4570.8  T
  11    -32.0753224 -0.170530E-12  0.148E-06    3.65   13276.6  T
     SCC iter.                  ...        0 min,  0.075 sec
     gradient                   ...        0 min,  0.002 sec
 * total energy  :   -31.5548575 Eh     change       -0.5765807E-04 Eh
   gradient norm :     0.0015067 Eh/α   predicted    -0.3899397E-04 ( -32.37%)
   displ. norm   :     0.2404793 α      lambda       -0.4762090E-04
   maximum displ.:     0.1554942 α      in ANC's #3, #1, #2, ...

........................................................................
.............................. CYCLE   27 ..............................
........................................................................

 iter      E             dE          RMSdq      gap      omega  full diag
   1    -32.0750672 -0.320751E+02  0.713E-02    3.64       0.0  T
   2    -32.0750680 -0.738824E-06  0.416E-02    3.64       1.0  T
   3    -32.0750679  0.608175E-07  0.491E-03    3.64       4.0  T
   4    -32.0750681 -0.146302E-06  0.178E-03    3.64      11.0  T
   5    -32.0750681 -0.289821E-07  0.650E-04    3.64      30.2  T
   6    -32.0750681 -0.590157E-08  0.266E-04    3.64      73.7  T
   7    -32.0750681 -0.855636E-10  0.721E-05    3.64     271.9  T
   8    -32.0750681 -0.279101E-10  0.225E-05    3.64     872.6  T
   9    -32.0750681 -0.191136E-11  0.112E-05    3.64    1745.9  T
  10    -32.0750681 -0.110134E-11  0.446E-06    3.64    4399.7  T
  11    -32.0750681 -0.270006E-12  0.184E-06    3.64   10672.7  T
     SCC iter.                  ...        0 min,  0.074 sec
     gradient                   ...        0 min,  0.002 sec
 * total energy  :   -31.5549097 Eh     change       -0.5218643E-04 Eh
   gradient norm :     0.0028275 Eh/α   predicted    -0.2442298E-04 ( -53.20%)
   displ. norm   :     0.1229136 α      lambda       -0.4146645E-04
   maximum displ.:     0.0796090 α      in ANC's #3, #1, #2, ...

........................................................................
.............................. CYCLE   28 ..............................
........................................................................

 iter      E             dE          RMSdq      gap      omega  full diag
   1    -32.0754180 -0.320754E+02  0.403E-02    3.65       0.0  T
   2    -32.0754182 -0.200418E-06  0.233E-02    3.65       1.0  T
   3    -32.0754182  0.203380E-07  0.274E-03    3.65       7.2  T
   4    -32.0754183 -0.446058E-07  0.103E-03    3.65      19.0  T
   5    -32.0754183 -0.964080E-08  0.360E-04    3.65      54.5  T
   6    -32.0754183 -0.155446E-08  0.145E-04    3.65     135.4  T
   7    -32.0754183 -0.279456E-10  0.420E-05    3.65     467.3  T
   8    -32.0754183 -0.104521E-10  0.159E-05    3.65    1236.3  T
   9    -32.0754183 -0.471800E-11  0.515E-06    3.65    3808.3  T
  10    -32.0754183 -0.198952E-12  0.178E-06    3.65   10988.9  T
     SCC iter.                  ...        0 min,  0.074 sec
     gradient                   ...        0 min,  0.002 sec
 * total energy  :   -31.5549480 Eh     change       -0.3823275E-04 Eh
   gradient norm :     0.0029609 Eh/α   predicted    -0.2104700E-04 ( -44.95%)
   displ. norm   :     0.3077541 α      lambda       -0.1112652E-03
   maximum displ.:     0.1932409 α      in ANC's #3, #1, #2, ...

........................................................................
.............................. CYCLE   29 ..............................
........................................................................

 iter      E             dE          RMSdq      gap      omega  full diag
   1    -32.0758616 -0.320759E+02  0.993E-02    3.64       0.0  T
   2    -32.0758627 -0.109489E-05  0.579E-02    3.65       1.0  T
   3    -32.0758626  0.147319E-06  0.616E-03    3.65       3.2  T
   4    -32.0758628 -0.278524E-06  0.242E-03    3.65       8.1  T
   5    -32.0758629 -0.639396E-07  0.835E-04    3.65      23.5  T
   6    -32.0758629 -0.947437E-08  0.354E-04    3.65      55.4  T
   7    -32.0758629 -0.128665E-09  0.780E-05    3.65     251.4  T
   8    -32.0758629 -0.840785E-10  0.291E-05    3.65     673.7  T
   9    -32.0758629 -0.142037E-10  0.109E-05    3.65    1800.3  T
  10    -32.0758629 -0.326850E-12  0.345E-06    3.65    5682.2  T
  11    -32.0758629 -0.781597E-13  0.140E-06    3.65   14005.8  T
     SCC iter.                  ...        0 min,  0.077 sec
     gradient                   ...        0 min,  0.003 sec
 * total energy  :   -31.5550453 Eh     change       -0.9734568E-04 Eh
   gradient norm :     0.0028812 Eh/α   predicted    -0.6090997E-04 ( -37.43%)
   displ. norm   :     0.5411578 α      lambda       -0.1641326E-03
   maximum displ.:     0.3358145 α      in ANC's #3, #1, #2, ...

........................................................................
.............................. CYCLE   30 ..............................
........................................................................

 iter      E             dE          RMSdq      gap      omega  full diag
   1    -32.0737311 -0.320737E+02  0.176E-01    3.64       0.0  T
   2    -32.0737341 -0.302382E-05  0.103E-01    3.64       1.0  T
   3    -32.0737336  0.555690E-06  0.116E-02    3.65       1.7  T
   4    -32.0737346 -0.105185E-05  0.368E-03    3.65       5.3  T
   5    -32.0737347 -0.958609E-07  0.157E-03    3.64      12.5  T
   6    -32.0737348 -0.386254E-07  0.662E-04    3.64      29.6  T
   7    -32.0737348 -0.691024E-09  0.176E-04    3.64     111.7  T
   8    -32.0737348 -0.260805E-09  0.596E-05    3.64     329.1  T
   9    -32.0737348 -0.655831E-10  0.257E-05    3.64     763.5  T
  10    -32.0737348 -0.385825E-11  0.610E-06    3.64    3216.6  T
  11    -32.0737348 -0.149214E-12  0.290E-06    3.64    6761.9  T
     SCC iter.                  ...        0 min,  0.080 sec
     gradient                   ...        0 min,  0.002 sec
 * total energy  :   -31.5551730 Eh     change       -0.1277268E-03 Eh
   gradient norm :     0.0041622 Eh/α   predicted    -0.1061068E-03 ( -16.93%)
   displ. norm   :     0.4830077 α      lambda       -0.1279498E-03
   maximum displ.:     0.2890964 α      in ANC's #3, #1, #2, ...

........................................................................
.............................. CYCLE   31 ..............................
........................................................................

 iter      E             dE          RMSdq      gap      omega  full diag
   1    -32.0720652 -0.320721E+02  0.160E-01    3.63       0.0  T
   2    -32.0720673 -0.208531E-05  0.939E-02    3.64       1.0  T
   3    -32.0720667  0.581617E-06  0.997E-03    3.64       2.0  T
   4    -32.0720676 -0.970863E-06  0.317E-03    3.64       6.2  T
   5    -32.0720677 -0.847538E-07  0.139E-03    3.64      14.1  T
   6    -32.0720678 -0.303306E-07  0.579E-04    3.64      33.8  T
   7    -32.0720678 -0.360224E-09  0.135E-04    3.64     144.9  T
   8    -32.0720678 -0.222705E-09  0.453E-05    3.64     433.1  T
   9    -32.0720678 -0.385896E-10  0.197E-05    3.64     996.4  T
  10    -32.0720678 -0.155609E-11  0.454E-06    3.64    4316.5  T
  11    -32.0720678 -0.639488E-13  0.207E-06    3.64    9466.5  T
     SCC iter.                  ...        0 min,  0.079 sec
     gradient                   ...        0 min,  0.002 sec
 * total energy  :   -31.5552643 Eh     change       -0.9127793E-04 Eh
   gradient norm :     0.0052746 Eh/α   predicted    -0.7890400E-04 ( -13.56%)
   displ. norm   :     0.3168658 α      lambda       -0.1427097E-03
   maximum displ.:     0.1890580 α      in ANC's #1, #3, #2, ...

........................................................................
.............................. CYCLE   32 ..............................
........................................................................

 iter      E             dE          RMSdq      gap      omega  full diag
   1    -32.0742732 -0.320743E+02  0.110E-01    3.64       0.0  T
   2    -32.0742740 -0.812834E-06  0.647E-02    3.64       1.0  T
   3    -32.0742733  0.658226E-06  0.715E-03    3.64       2.7  T
   4    -32.0742742 -0.853463E-06  0.226E-03    3.64       8.7  T
   5    -32.0742743 -0.706976E-07  0.908E-04    3.64      21.6  T
   6    -32.0742743 -0.842309E-08  0.363E-04    3.64      54.1  T
   7    -32.0742743 -0.211386E-10  0.862E-05    3.64     227.4  T
   8    -32.0742743 -0.156327E-09  0.258E-05    3.64     760.5  T
   9    -32.0742743 -0.528644E-11  0.111E-05    3.64    1762.6  T
  10    -32.0742743 -0.831335E-12  0.315E-06    3.64    6217.7  T
  11    -32.0742743 -0.426326E-13  0.138E-06    3.64   14250.3  T
     SCC iter.                  ...        0 min,  0.078 sec
     gradient                   ...        0 min,  0.002 sec
 * total energy  :   -31.5553689 Eh     change       -0.1046149E-03 Eh
   gradient norm :     0.0035884 Eh/α   predicted    -0.7851980E-04 ( -24.94%)
   displ. norm   :     0.4968454 α      lambda       -0.1568810E-03
   maximum displ.:     0.3013470 α      in ANC's #1, #3, #2, ...

........................................................................
.............................. CYCLE   33 ..............................
........................................................................

 iter      E             dE          RMSdq      gap      omega  full diag
   1    -32.0732239 -0.320732E+02  0.172E-01    3.63       0.0  T
   2    -32.0732263 -0.244429E-05  0.101E-01    3.64       1.0  T
   3    -32.0732258  0.489712E-06  0.113E-02    3.64       1.7  T
   4    -32.0732268 -0.988003E-06  0.285E-03    3.64       6.9  T
   5    -32.0732268 -0.212859E-07  0.160E-03    3.64      12.2  T
   6    -32.0732268 -0.264717E-07  0.652E-04    3.64      30.1  T
   7    -32.0732268 -0.993801E-09  0.197E-04    3.64      99.4  T
   8    -32.0732268 -0.166345E-09  0.551E-05    3.64     355.7  T
   9    -32.0732268 -0.523883E-10  0.293E-05    3.64     669.2  T
  10    -32.0732268 -0.463984E-11  0.689E-06    3.64    2846.6  T
  11    -32.0732268 -0.227374E-12  0.252E-06    3.64    7796.2  T
     SCC iter.                  ...        0 min,  0.076 sec
     gradient                   ...        0 min,  0.002 sec
 * total energy  :   -31.5554868 Eh     change       -0.1178233E-03 Eh
   gradient norm :     0.0047937 Eh/α   predicted    -0.9780419E-04 ( -16.99%)
   displ. norm   :     0.3719863 α      lambda       -0.2214679E-03
   maximum displ.:     0.2203393 α      in ANC's #1, #2, #3, ...

........................................................................
.............................. CYCLE   34 ..............................
........................................................................

 iter      E             dE          RMSdq      gap      omega  full diag
   1    -32.0787427 -0.320787E+02  0.137E-01    3.65       0.0  T
   2    -32.0787442 -0.143831E-05  0.803E-02    3.66       1.0  T
   3    -32.0787436  0.579597E-06  0.788E-03    3.66       2.5  T
   4    -32.0787445 -0.895893E-06  0.247E-03    3.66       7.9  T
   5    -32.0787445 -0.514131E-07  0.124E-03    3.66      15.8  T
   6    -32.0787446 -0.706577E-08  0.483E-04    3.66      40.6  T
   7    -32.0787446 -0.117353E-08  0.138E-04    3.66     142.1  T
   8    -32.0787446 -0.178638E-09  0.450E-05    3.66     435.6  T
   9    -32.0787446 -0.305391E-10  0.185E-05    3.66    1058.0  T
  10    -32.0787446 -0.193978E-11  0.902E-06    3.66    2174.2  T
  11    -32.0787446 -0.454747E-12  0.276E-06    3.66    7093.4  T
     SCC iter.                  ...        0 min,  0.076 sec
     gradient                   ...        0 min,  0.002 sec
 * total energy  :   -31.5556022 Eh     change       -0.1154290E-03 Eh
   gradient norm :     0.0049845 Eh/α   predicted    -0.1260590E-03 (   9.21%)
   displ. norm   :     0.6790191 α      lambda       -0.2132864E-03
   maximum displ.:     0.4153354 α      in ANC's #1, #3, #2, ...

........................................................................
.............................. CYCLE   35 ..............................
........................................................................

 iter      E             dE          RMSdq      gap      omega  full diag
   1    -32.0709623 -0.320710E+02  0.243E-01    3.62       0.0  T
   2    -32.0709673 -0.494850E-05  0.142E-01    3.63       1.0  T
   3    -32.0709668  0.505731E-06  0.128E-02    3.63       1.5  T
   4    -32.0709683 -0.149266E-05  0.384E-03    3.63       5.1  T
   5    -32.0709683 -0.695540E-07  0.159E-03    3.63      12.3  T
   6    -32.0709683 -0.118706E-07  0.816E-04    3.63      24.0  T
   7    -32.0709684 -0.324974E-08  0.326E-04    3.63      60.2  T
   8    -32.0709684 -0.698456E-09  0.749E-05    3.63     262.0  T
   9    -32.0709684 -0.811724E-10  0.383E-05    3.63     512.4  T
  10    -32.0709684 -0.666489E-11  0.823E-06    3.63    2382.1  T
  11    -32.0709684 -0.116529E-11  0.371E-06    3.63    5288.7  T
     SCC iter.                  ...        0 min,  0.075 sec
     gradient                   ...        0 min,  0.002 sec
 * total energy  :   -31.5556608 Eh     change       -0.5865616E-04 Eh
   gradient norm :     0.0086374 Eh/α   predicted    -0.1558154E-03 ( 165.64%)
   displ. norm   :     0.1721686 α      lambda       -0.1651586E-03
   maximum displ.:     0.1047167 α      in ANC's #1, #3, #2, ...

........................................................................
.............................. CYCLE   36 ..............................
........................................................................

 iter      E             dE          RMSdq      gap      omega  full diag
   1    -32.0760079 -0.320760E+02  0.622E-02    3.64       0.0  T
   2    -32.0760091 -0.127637E-05  0.362E-02    3.64       1.0  T
   3    -32.0760088  0.284586E-06  0.620E-03    3.64       3.2  T
   4    -32.0760093 -0.420361E-06  0.207E-03    3.64       9.5  T
   5    -32.0760093 -0.358455E-07  0.838E-04    3.64      23.4  T
   6    -32.0760093 -0.522245E-08  0.399E-04    3.64      49.1  T
   7    -32.0760093 -0.149682E-08  0.142E-04    3.64     138.6  T
   8    -32.0760093 -0.746709E-10  0.377E-05    3.64     520.0  T
   9    -32.0760093 -0.102673E-10  0.158E-05    3.64    1243.8  T
  10    -32.0760093 -0.213163E-12  0.405E-06    3.64    4841.8  T
  11    -32.0760093 -0.994760E-13  0.217E-06    3.64    9048.9  T
     SCC iter.                  ...        0 min,  0.075 sec
     gradient                   ...        0 min,  0.002 sec
 * total energy  :   -31.5557487 Eh     change       -0.8786557E-04 Eh
   gradient norm :     0.0027485 Eh/α   predicted    -0.8502730E-04 (  -3.23%)
   displ. norm   :     0.2161874 α      lambda       -0.6596412E-04
   maximum displ.:     0.1249416 α      in ANC's #2, #1, #3, ...

........................................................................
.............................. CYCLE   37 ..............................
........................................................................

 iter      E             dE          RMSdq      gap      omega  full diag
   1    -32.0767212 -0.320767E+02  0.773E-02    3.64       0.0  T
   2    -32.0767216 -0.386759E-06  0.455E-02    3.64       1.0  T
   3    -32.0767214  0.178328E-06  0.411E-03    3.64       4.8  T
   4    -32.0767217 -0.250446E-06  0.141E-03    3.64      13.9  T
   5    -32.0767217 -0.317252E-07  0.662E-04    3.64      29.6  T
   6    -32.0767217 -0.627817E-08  0.264E-04    3.64      74.4  T
   7    -32.0767217 -0.145178E-09  0.734E-05    3.64     267.1  T
   8    -32.0767217 -0.190994E-10  0.292E-05    3.64     671.1  T
   9    -32.0767217 -0.882494E-11  0.118E-05    3.64    1655.4  T
  10    -32.0767217 -0.682121E-12  0.388E-06    3.64    5052.0  T
  11    -32.0767217 -0.497380E-13  0.177E-06    3.64   11084.2  T
     SCC iter.                  ...        0 min,  0.075 sec
     gradient                   ...        0 min,  0.002 sec
 * total energy  :   -31.5558013 Eh     change       -0.5262787E-04 Eh
   gradient norm :     0.0018571 Eh/α   predicted    -0.3452426E-04 ( -34.40%)
   displ. norm   :     0.6341735 α      lambda       -0.8400323E-04
   maximum displ.:     0.3748879 α      in ANC's #2, #1, #3, ...

........................................................................
.............................. CYCLE   38 ..............................
........................................................................

 iter      E             dE          RMSdq      gap      omega  full diag
   1    -32.0742041 -0.320742E+02  0.229E-01    3.63       0.0  T
   2    -32.0742071 -0.303590E-05  0.135E-01    3.63       1.0  T
   3    -32.0742060  0.110544E-05  0.113E-02    3.63       1.7  T
   4    -32.0742077 -0.175492E-05  0.389E-03    3.63       5.0  T
   5    -32.0742079 -0.192155E-06  0.173E-03    3.63      11.3  T
   6    -32.0742080 -0.424557E-07  0.699E-04    3.63      28.1  T
   7    -32.0742080 -0.861377E-09  0.204E-04    3.63      96.3  T
   8    -32.0742080 -0.158579E-09  0.789E-05    3.63     248.4  T
   9    -32.0742080 -0.940190E-10  0.276E-05    3.63     711.2  T
  10    -32.0742080 -0.355271E-11  0.838E-06    3.63    2340.4  T
  11    -32.0742080 -0.802913E-12  0.359E-06    3.63    5458.7  T
     SCC iter.                  ...        0 min,  0.075 sec
     gradient                   ...        0 min,  0.002 sec
 * total energy  :   -31.5558364 Eh     change       -0.3511275E-04 Eh
   gradient norm :     0.0047239 Eh/α   predicted    -0.4950921E-04 (  41.00%)
   displ. norm   :     0.0952158 α      lambda       -0.5197496E-04
   maximum displ.:     0.0620666 α      in ANC's #1, #3, #2, ...

........................................................................
.............................. CYCLE   39 ..............................
........................................................................

 iter      E             dE          RMSdq      gap      omega  full diag
   1    -32.0767988 -0.320768E+02  0.371E-02    3.64       0.0  T
   2    -32.0767991 -0.296371E-06  0.216E-02    3.64       1.0  T
   3    -32.0767991  0.441197E-07  0.240E-03    3.64       8.2  T
   4    -32.0767991 -0.810467E-07  0.908E-04    3.64      21.6  T
   5    -32.0767992 -0.750997E-08  0.383E-04    3.64      51.3  T
   6    -32.0767992 -0.136687E-09  0.154E-04    3.64     127.2  T
   7    -32.0767992 -0.628617E-10  0.718E-05    3.64     273.1  T
   8    -32.0767992 -0.713598E-10  0.146E-05    3.64    1345.5  T
   9    -32.0767992 -0.159162E-11  0.949E-06    3.64    2066.9  T
  10    -32.0767992 -0.270006E-12  0.249E-06    3.64    7869.8  T
     SCC iter.                  ...        0 min,  0.074 sec
     gradient                   ...        0 min,  0.002 sec
 * total energy  :   -31.5558662 Eh     change       -0.2979915E-04 Eh
   gradient norm :     0.0020600 Eh/α   predicted    -0.2622395E-04 ( -12.00%)
   displ. norm   :     0.0483672 α      lambda       -0.1733642E-04
   maximum displ.:     0.0278411 α      in ANC's #2, #3, #8, ...

........................................................................
.............................. CYCLE   40 ..............................
........................................................................

 iter      E             dE          RMSdq      gap      omega  full diag
   1    -32.0773236 -0.320773E+02  0.168E-02    3.65       0.0  T
   2    -32.0773237 -0.916133E-07  0.996E-03    3.64       2.0  T
   3    -32.0773236  0.381456E-07  0.261E-03    3.64       7.5  T
   4    -32.0773237 -0.554766E-07  0.537E-04    3.64      36.6  T
   5    -32.0773237 -0.703032E-09  0.322E-04    3.64      60.8  T
   6    -32.0773237 -0.121600E-08  0.155E-04    3.64     126.6  T
   7    -32.0773237 -0.697469E-10  0.474E-05    3.64     413.9  T
   8    -32.0773237 -0.999023E-11  0.106E-05    3.64    1850.4  T
   9    -32.0773237 -0.173372E-11  0.451E-06    3.64    4346.7  T
  10    -32.0773237  0.284217E-13  0.200E-06    3.64    9819.7  T
     SCC iter.                  ...        0 min,  0.074 sec
     gradient                   ...        0 min,  0.002 sec
 * total energy  :   -31.5558773 Eh     change       -0.1100988E-04 Eh
   gradient norm :     0.0012669 Eh/α   predicted    -0.8691040E-05 ( -21.06%)
   displ. norm   :     0.1657618 α      lambda       -0.1911985E-04
   maximum displ.:     0.1097798 α      in ANC's #2, #3, #1, ...

........................................................................
.............................. CYCLE   41 ..............................
........................................................................

 iter      E             dE          RMSdq      gap      omega  full diag
   1    -32.0778460 -0.320778E+02  0.599E-02    3.64       0.0  T
   2    -32.0778464 -0.302213E-06  0.353E-02    3.64       1.0  T
   3    -32.0778463  0.100336E-06  0.406E-03    3.64       4.8  T
   4    -32.0778464 -0.161555E-06  0.107E-03    3.64      18.3  T
   5    -32.0778464 -0.691153E-08  0.589E-04    3.64      33.3  T
   6    -32.0778464 -0.513567E-08  0.236E-04    3.64      83.0  T
   7    -32.0778464 -0.885265E-10  0.579E-05    3.64     338.5  T
   8    -32.0778464 -0.185452E-10  0.189E-05    3.64    1037.8  T
   9    -32.0778464 -0.409273E-11  0.893E-06    3.64    2196.6  T
  10    -32.0778464 -0.717648E-12  0.337E-06    3.64    5811.7  T
     SCC iter.                  ...        0 min,  0.074 sec
     gradient                   ...        0 min,  0.002 sec
 * total energy  :   -31.5558917 Eh     change       -0.1439488E-04 Eh
   gradient norm :     0.0019756 Eh/α   predicted    -0.9678442E-05 ( -32.76%)
   displ. norm   :     0.1437995 α      lambda       -0.1196762E-04
   maximum displ.:     0.0993312 α      in ANC's #2, #3, #1, ...

........................................................................
.............................. CYCLE   42 ..............................
........................................................................

 iter      E             dE          RMSdq      gap      omega  full diag
   1    -32.0776080 -0.320776E+02  0.540E-02    3.64       0.0  T
   2    -32.0776083 -0.288874E-06  0.316E-02    3.64       1.0  T
   3    -32.0776082  0.433837E-07  0.276E-03    3.64       7.1  T
   4    -32.0776083 -0.850244E-07  0.112E-03    3.64      17.5  T
   5    -32.0776083 -0.140855E-07  0.397E-04    3.64      49.4  T
   6    -32.0776083 -0.118971E-08  0.205E-04    3.64      95.8  T
   7    -32.0776083 -0.359925E-09  0.770E-05    3.64     254.6  T
   8    -32.0776083 -0.426326E-12  0.249E-05    3.64     786.2  T
   9    -32.0776083 -0.810019E-11  0.104E-05    3.64    1885.8  T
  10    -32.0776083 -0.831335E-12  0.266E-06    3.64    7383.4  T
  11    -32.0776083  0.142109E-13  0.120E-06    3.64   16352.5  T
     SCC iter.                  ...        0 min,  0.075 sec
     gradient                   ...        0 min,  0.002 sec
 * total energy  :   -31.5558992 Eh     change       -0.7509794E-05 Eh
   gradient norm :     0.0018606 Eh/α   predicted    -0.6038917E-05 ( -19.59%)
   displ. norm   :     0.0851129 α      lambda       -0.8472612E-05
   maximum displ.:     0.0613443 α      in ANC's #2, #1, #3, ...
 * RMSD in coord.:     0.9653279 α      energy gain  -0.1552057E-02 Eh

generating ANC from model Hessian ...
Using Lindh-Hessian (1995)
 Shifting diagonal of input Hessian by   9.258557031379535E-003
 Lowest  eigenvalues of input Hessian
    0.000000    0.000000    0.000000    0.000000    0.000000    0.000000
    0.010000    0.010307    0.010827    0.011294    0.012185    0.013053
    0.015079    0.017731    0.018247    0.019609    0.024335    0.024361
 Highest eigenvalues
    1.363173    1.551326    1.575011    1.879238    1.985635    2.004130
 

........................................................................
.............................. CYCLE   43 ..............................
........................................................................

 iter      E             dE          RMSdq      gap      omega  full diag
   1    -32.0765077 -0.320765E+02  0.336E-02    3.64       0.0  T
   2    -32.0765079 -0.176789E-06  0.196E-02    3.64       1.0  T
   3    -32.0765078  0.114223E-06  0.343E-03    3.64       5.7  T
   4    -32.0765079 -0.140105E-06  0.891E-04    3.64      22.0  T
   5    -32.0765079 -0.109930E-07  0.409E-04    3.64      47.9  T
   6    -32.0765079 -0.217012E-08  0.175E-04    3.64     112.4  T
   7    -32.0765079 -0.149917E-09  0.558E-05    3.64     351.7  T
   8    -32.0765079 -0.258638E-11  0.145E-05    3.64    1353.0  T
   9    -32.0765079 -0.191136E-11  0.639E-06    3.64    3068.5  T
  10    -32.0765079 -0.142109E-12  0.263E-06    3.64    7465.0  T
     SCC iter.                  ...        0 min,  0.075 sec
     gradient                   ...        0 min,  0.002 sec
 * total energy  :   -31.5559032 Eh     change       -0.4084446E-05 Eh
   gradient norm :     0.0011790 Eh/α   predicted     0.0000000E+00 (-100.00%)
   displ. norm   :     0.0277549 α      lambda       -0.7312564E-05
   maximum displ.:     0.0195741 α      in ANC's #3, #2, #5, ...

........................................................................
.............................. CYCLE   44 ..............................
........................................................................

 iter      E             dE          RMSdq      gap      omega  full diag
   1    -32.0773791 -0.320774E+02  0.121E-02    3.64       0.0  T
   2    -32.0773791 -0.348046E-07  0.699E-03    3.64       2.8  T
   3    -32.0773791  0.179793E-07  0.145E-03    3.64      13.6  T
   4    -32.0773791 -0.241144E-07  0.423E-04    3.64      46.4  T
   5    -32.0773792 -0.115927E-08  0.165E-04    3.64     118.6  T
   6    -32.0773792 -0.463764E-09  0.831E-05    3.64     236.0  T
   7    -32.0773792 -0.391580E-10  0.245E-05    3.64     799.3  T
   8    -32.0773792 -0.253664E-11  0.637E-06    3.64    3078.5  T
   9    -32.0773792 -0.227374E-12  0.235E-06    3.64    8339.2  T
     SCC iter.                  ...        0 min,  0.074 sec
     gradient                   ...        0 min,  0.002 sec
 * total energy  :   -31.5559104 Eh     change       -0.7108796E-05 Eh
   gradient norm :     0.0004120 Eh/α   predicted    -0.3664466E-05 ( -48.45%)
   displ. norm   :     0.0428905 α      lambda       -0.5216645E-05
   maximum displ.:     0.0295437 α      in ANC's #3, #2, #5, ...

........................................................................
.............................. CYCLE   45 ..............................
........................................................................

 iter      E             dE          RMSdq      gap      omega  full diag
   1    -32.0776136 -0.320776E+02  0.154E-02    3.64       0.0  T
   2    -32.0776136 -0.163965E-07  0.906E-03    3.64       2.2  T
   3    -32.0776136  0.588197E-08  0.845E-04    3.64      23.2  T
   4    -32.0776136 -0.972703E-08  0.272E-04    3.64      72.1  T
   5    -32.0776136 -0.529333E-09  0.120E-04    3.64     164.1  T
   6    -32.0776136 -0.214250E-09  0.465E-05    3.64     421.9  T
   7    -32.0776136 -0.834888E-11  0.181E-05    3.64    1086.3  T
   8    -32.0776136 -0.180478E-11  0.534E-06    3.64    3672.0  T
   9    -32.0776136 -0.227374E-12  0.205E-06    3.64    9564.8  T
     SCC iter.                  ...        0 min,  0.074 sec
     gradient                   ...        0 min,  0.002 sec
 * total energy  :   -31.5559166 Eh     change       -0.6265067E-05 Eh
   gradient norm :     0.0006304 Eh/α   predicted    -0.2610835E-05 ( -58.33%)
   displ. norm   :     0.0644399 α      lambda       -0.6157777E-05
   maximum displ.:     0.0410432 α      in ANC's #3, #2, #5, ...

........................................................................
.............................. CYCLE   46 ..............................
........................................................................

 iter      E             dE          RMSdq      gap      omega  full diag
   1    -32.0773993 -0.320774E+02  0.220E-02    3.64       0.0  T
   2    -32.0773993 -0.215491E-07  0.129E-02    3.64       1.5  T
   3    -32.0773993  0.845544E-08  0.105E-03    3.64      18.7  T
   4    -32.0773993 -0.149147E-07  0.336E-04    3.64      58.4  T
   5    -32.0773993 -0.928480E-09  0.153E-04    3.64     127.9  T
   6    -32.0773993 -0.381725E-09  0.579E-05    3.64     338.9  T
   7    -32.0773993 -0.920153E-11  0.226E-05    3.64     869.3  T
   8    -32.0773993 -0.471090E-11  0.632E-06    3.64    3102.2  T
   9    -32.0773993 -0.333955E-12  0.234E-06    3.64    8388.1  T
     SCC iter.                  ...        0 min,  0.074 sec
     gradient                   ...        0 min,  0.002 sec
 * total energy  :   -31.5559237 Eh     change       -0.7067171E-05 Eh
[...]
         :: total charge              -0.000000000000 e     ::
         :::::::::::::::::::::::::::::::::::::::::::::::::::::

           ------------------------------------------------- 
          |                Numerical Hessian                |
           ------------------------------------------------- 
step length          :   0.00500
SCC accuracy         :   0.30000
Hessian scale factor :   1.00000
frozen atoms in %    :   0.00000    0
RMS gradient         :   0.00003
estimated CPU  time      1.16 min
estimated wall time      0.15 min

writing file <hessian>.

 projected vibrational frequencies (cm⁻¹)
eigval :       -0.00    -0.00    -0.00    -0.00    -0.00     0.00
eigval :       27.01    70.46    81.98   127.39   129.68   199.79
eigval :      204.41   228.08   261.76   277.25   283.89   357.06
eigval :      363.03   406.11   473.01   585.97   638.33   657.05
eigval :      683.13   704.63   729.42   746.82   791.35   871.04
eigval :      894.36   925.05   931.12   968.60   974.50   998.59
eigval :     1012.51  1021.91  1065.63  1073.02  1085.88  1115.63
eigval :     1123.40  1181.90  1203.40  1225.81  1227.83  1251.27
eigval :     1266.78  1282.37  1316.90  1408.53  1410.80  1421.69
eigval :     1451.02  1455.26  1462.14  1497.27  1501.02  1504.92
eigval :     1508.41  1577.42  1589.06  2938.85  2942.33  2949.20
eigval :     2960.84  3011.21  3013.19  3023.94  3024.89  3034.49
eigval :     3039.12  3059.02  3068.35  3074.73  3087.01  3094.10
           -------------------------------------------------
          |                Property Printout                |
           -------------------------------------------------

    * Orbital Energies and Occupations

         #    Occupation            Energy/Eh            Energy/eV
      -------------------------------------------------------------
         1        2.0000           -0.6587494             -17.9255
       ...           ...                  ...                  ...
        18        2.0000           -0.4770386             -12.9809
        19        2.0000           -0.4739910             -12.8980
        20        2.0000           -0.4690259             -12.7628
        21        2.0000           -0.4616433             -12.5620
        22        2.0000           -0.4527083             -12.3188
        23        2.0000           -0.4451249             -12.1125
        24        2.0000           -0.4393747             -11.9560
        25        2.0000           -0.4247044             -11.5568
        26        2.0000           -0.4143487             -11.2750
        27        2.0000           -0.4078563             -11.0983
        28        2.0000           -0.4027885             -10.9604
        29        2.0000           -0.4006971             -10.9035
        30        2.0000           -0.3635142              -9.8917 (HOMO)
        31                         -0.2298663              -6.2550 (LUMO)
        32                         -0.2215215              -6.0279
        33                         -0.1545404              -4.2053
        34                         -0.1498232              -4.0769
        35                         -0.0933016              -2.5389
        36                          0.0108297               0.2947
        37                          0.0438632               1.1936
        38                          0.1057096               2.8765
        39                          0.1122329               3.0540
        40                          0.1165584               3.1717
        41                          0.1318922               3.5890
       ...                                ...                  ...
        64                          0.7997144              21.7613
      -------------------------------------------------------------
                  HL-Gap            0.1336479 Eh            3.6367 eV
             Fermi-level           -0.2966902 Eh           -8.0734 eV

     #   Z          covCN         q      C6AA      α(0)
     1  15 P        3.019    -0.113   165.358    23.101
     2   6 C        3.748    -0.045    21.450     6.606
     3   1 H        0.925     0.047     2.362     2.403
     4   1 H        0.926     0.041     2.441     2.443
     5   6 C        3.818    -0.097    22.333     6.726
     6   1 H        0.925     0.037     2.488     2.467
     7   1 H        0.925     0.041     2.431     2.438
     8   1 H        0.925     0.032     2.556     2.500
     9   6 C        2.915     0.010    27.791     8.645
    10   6 C        2.961    -0.034    28.833     8.807
    11   6 C        3.020    -0.030    28.728     8.792
    12   6 C        2.919    -0.031    28.767     8.795
    13   6 C        2.918    -0.030    28.754     8.793
    14   6 C        2.920    -0.031    28.777     8.797
    15   1 H        0.926     0.033     2.550     2.497
    16   1 H        0.925     0.034     2.533     2.489
    17   1 H        0.926     0.028     2.617     2.530
    18   1 H        0.926     0.029     2.604     2.524
    19   1 H        0.926     0.028     2.611     2.527
    20   6 C        3.748    -0.044    21.428     6.602
    21   1 H        0.926     0.041     2.438     2.442
    22   1 H        0.926     0.042     2.424     2.435
    23   6 C        3.780    -0.094    22.320     6.730
    24   1 H        0.925     0.038     2.478     2.462
    25   1 H        0.925     0.037     2.483     2.464
    26   1 H        0.925     0.032     2.560     2.502

 Mol. C6AA /au·bohr⁶  :       7601.177329
 Mol. C8AA /au·bohr⁸  :     202606.747058
 Mol. α(0) /au        :        139.517645


Wiberg/Mayer (AO) data.
largest (>0.10) Wiberg bond orders for each atom

 ---------------------------------------------------------------------------
     #   Z sym  total        # sym  WBO       # sym  WBO       # sym  WBO
 ---------------------------------------------------------------------------
     1  15 P    3.378 --     2 C    1.027     9 C    1.019    20 C    1.015
     2   6 C    3.995 --     1 P    1.027     5 C    1.015     4 H    0.956
                             3 H    0.951
     3   1 H    0.998 --     2 C    0.951
     4   1 H    0.998 --     2 C    0.956
     5   6 C    3.996 --     2 C    1.015     8 H    0.985     7 H    0.984
                             6 H    0.984
     6   1 H    0.999 --     5 C    0.984
     7   1 H    0.998 --     5 C    0.984
     8   1 H    0.999 --     5 C    0.985
     9   6 C    3.982 --    10 C    1.402    11 C    1.390     1 P    1.019
                            14 C    0.106
    10   6 C    3.993 --    12 C    1.441     9 C    1.402    15 H    0.963
                            13 C    0.107
    11   6 C    3.992 --    13 C    1.457     9 C    1.390    16 H    0.962
                            12 C    0.110
    12   6 C    3.993 --    14 C    1.441    10 C    1.441    17 H    0.970
                            11 C    0.110
    13   6 C    3.992 --    11 C    1.457    14 C    1.428    18 H    0.970
                            10 C    0.107
    14   6 C    3.991 --    12 C    1.441    13 C    1.428    19 H    0.971
                             9 C    0.106
    15   1 H    0.999 --    10 C    0.963
    16   1 H    0.999 --    11 C    0.962
    17   1 H    0.999 --    12 C    0.970
    18   1 H    0.999 --    13 C    0.970
    19   1 H    0.998 --    14 C    0.971
    20   6 C    3.994 --     1 P    1.015    23 C    1.012    21 H    0.956
                            22 H    0.954
    21   1 H    0.998 --    20 C    0.956
    22   1 H    0.998 --    20 C    0.954
    23   6 C    3.997 --    20 C    1.012    24 H    0.984    26 H    0.983
                            25 H    0.983
    24   1 H    0.999 --    23 C    0.984
    25   1 H    0.999 --    23 C    0.983
    26   1 H    0.999 --    23 C    0.983
 ---------------------------------------------------------------------------

Topologies differ in total number of bonds
Writing topology from bond orders to xtbtopo.mol

molecular dipole:
                 x           y           z       tot (Debye)
 q only:       -0.195      -0.121      -0.264
   full:       -0.551      -0.129      -0.345       1.685
molecular quadrupole (traceless):
                xx          xy          yy          xz          yz          zz
 q only:       -3.560      -1.190      -0.634       0.054      -0.141       4.194
  q+dip:       -7.994      -3.967       0.739       0.857      -1.843       7.256
   full:       -7.867      -2.415       0.881       1.530      -0.709       6.986

           -------------------------------------------------
          |                Geometry Summary                 |
           -------------------------------------------------

      molecular mass/u    :      166.2002322
   center of mass at/Å    :        0.5782294       0.6375930      -2.2852955
  moments of inertia/u·Å² :        0.2864365E+03   0.8233179E+03   0.9301312E+03
rotational constants/cm⁻¹ :        0.5885295E-01   0.2047524E-01   0.1812393E-01

 * 24 selected distances

     #   Z          #   Z                                           value/Å
     1  15 P        2   6 C                                       1.8646930 (max)
     2   6 C        3   1 H                                       1.0924924
     2   6 C        4   1 H                                       1.0940381
     2   6 C        5   6 C                                       1.5233877
     5   6 C        6   1 H                                       1.0877568
     5   6 C        7   1 H                                       1.0885000
     5   6 C        8   1 H                                       1.0890365
     9   6 C       10   6 C                                       1.3898696
     9   6 C       11   6 C                                       1.3938541
    10   6 C       12   6 C                                       1.3845215
    11   6 C       13   6 C                                       1.3809829
    12   6 C       14   6 C                                       1.3835673
    13   6 C       14   6 C                                       1.3855936
    10   6 C       15   1 H                                       1.0792854 (min)
    11   6 C       16   1 H                                       1.0816222
    12   6 C       17   1 H                                       1.0808639
    13   6 C       18   1 H                                       1.0806395
    14   6 C       19   1 H                                       1.0801432
    20   6 C       21   1 H                                       1.0934745
    20   6 C       22   1 H                                       1.0934506
    20   6 C       23   6 C                                       1.5222128
    23   6 C       24   1 H                                       1.0872232
    23   6 C       25   1 H                                       1.0887804
    23   6 C       26   1 H                                       1.0891566

 * 3 distinct bonds (by element types)

   Z      Z             #   av. dist./Å        max./Å        min./Å
   1 H    6 C          15     1.0870975     1.0940381     1.0792854
   6 C    6 C           8     1.4204987     1.5233877     1.3809829
   6 C   15 P           1     1.8646930     1.8646930     1.8646930

           -------------------------------------------------
          |               Frequency Printout                |
           -------------------------------------------------
 projected vibrational frequencies (cm⁻¹)
eigval :       -0.00    -0.00    -0.00    -0.00    -0.00     0.00
eigval :       27.01    70.46    81.98   127.39   129.68   199.79
eigval :      204.41   228.08   261.76   277.25   283.89   357.06
eigval :      363.03   406.11   473.01   585.97   638.33   657.05
eigval :      683.13   704.63   729.42   746.82   791.35   871.04
eigval :      894.36   925.05   931.12   968.60   974.50   998.59
eigval :     1012.51  1021.91  1065.63  1073.02  1085.88  1115.63
eigval :     1123.40  1181.90  1203.40  1225.81  1227.83  1251.27
eigval :     1266.78  1282.37  1316.90  1408.53  1410.80  1421.69
eigval :     1451.02  1455.26  1462.14  1497.27  1501.02  1504.92
eigval :     1508.41  1577.42  1589.06  2938.85  2942.33  2949.20
eigval :     2960.84  3011.21  3013.19  3023.94  3024.89  3034.49
eigval :     3039.12  3059.02  3068.35  3074.73  3087.01  3094.10
 reduced masses (amu)
   1: 10.61   2: 12.54   3: 12.11   4: 12.44   5: 15.11   6: 14.86   7:  9.91   8:  9.33
   9:  9.49  10:  7.02  11: 10.07  12:  7.92  13:  2.81  14:  9.55  15:  6.38  16:  9.90
  17: 11.27  18: 13.78  19:  9.07  20: 19.01  21: 13.16  22: 11.18  23: 13.85  24: 10.51
  25: 12.57  26: 15.66  27:  4.47  28:  5.43  29:  4.03  30:  3.33  31:  3.58  32:  4.15
  33:  2.98  34: 10.12  35:  3.66  36:  3.15  37:  3.72  38:  3.91  39:  9.50  40:  9.32
  41:  8.38  42:  8.47  43:  4.44  44:  1.30  45:  1.99  46:  3.63  47:  3.30  48:  4.17
  49:  4.15  50:  3.37  51: 11.92  52:  2.93  53:  2.95  54:  8.59  55:  4.56  56:  2.30
  57:  5.29  58:  1.55  59:  1.54  60:  1.54  61:  1.56  62: 11.42  63: 11.44  64:  1.98
  65:  1.97  66:  1.49  67:  1.49  68:  1.87  69:  1.87  70:  1.72  71:  1.87  72:  1.42
  73:  1.55  74:  1.79  75:  1.77  76:  1.84  77:  1.88  78:  1.86
 IR intensities (km·mol⁻¹)
   1:  0.16   2:  0.02   3:  0.07   4:  0.10   5:  0.10   6:  0.07   7:  0.13   8:  0.10
   9:  0.08  10:  0.48  11:  0.19  12:  0.16  13:  0.16  14:  0.13  15:  0.18  16:  0.21
  17:  0.49  18:  0.49  19:  0.04  20:  1.70  21:  4.73  22:  0.05  23: 10.37  24:  3.10
  25:  0.12  26: 26.66  27: 33.82  28: 18.24  29: 19.97  30:  0.19  31:  0.01  32:  0.03
  33:  0.01  34:  2.02  35:  1.24  36:  2.01  37:  1.69  38:  8.65  39: 10.20  40:  7.09
  41:  0.05  42:  1.20  43:  0.11  44:  0.02  45:  0.76  46:  2.11  47:  3.80  48:  4.52
  49:  5.31  50:  0.21  51:  0.42  52:  1.82  53:  1.74  54:  0.71  55:  0.72  56:  1.84
  57:  0.40  58:  3.60  59:  0.68  60:  1.00  61:  1.25  62:  0.54  63:  5.36  64: 22.29
  65: 21.28  66: 10.71  67: 22.08  68: 50.87  69: 51.22  70: 22.73  71: 30.09  72: 24.57
  73: 22.24  74: 14.76  75:  5.50  76: 52.64  77: 77.77  78: 26.52
 Raman intensities (Ä⁴*amu⁻¹)
   1:  0.00   2:  0.00   3:  0.00   4:  0.00   5:  0.00   6:  0.00   7:  0.00   8:  0.00
   9:  0.00  10:  0.00  11:  0.00  12:  0.00  13:  0.00  14:  0.00  15:  0.00  16:  0.00
  17:  0.00  18:  0.00  19:  0.00  20:  0.00  21:  0.00  22:  0.00  23:  0.00  24:  0.00
  25:  0.00  26:  0.00  27:  0.00  28:  0.00  29:  0.00  30:  0.00  31:  0.00  32:  0.00
  33:  0.00  34:  0.00  35:  0.00  36:  0.00  37:  0.00  38:  0.00  39:  0.00  40:  0.00
  41:  0.00  42:  0.00  43:  0.00  44:  0.00  45:  0.00  46:  0.00  47:  0.00  48:  0.00
  49:  0.00  50:  0.00  51:  0.00  52:  0.00  53:  0.00  54:  0.00  55:  0.00  56:  0.00
  57:  0.00  58:  0.00  59:  0.00  60:  0.00  61:  0.00  62:  0.00  63:  0.00  64:  0.00
  65:  0.00  66:  0.00  67:  0.00  68:  0.00  69:  0.00  70:  0.00  71:  0.00  72:  0.00
  73:  0.00  74:  0.00  75:  0.00  76:  0.00  77:  0.00  78:  0.00
 output can be read by thermo (or use thermo option).
 writing <g98.out> molden fake output.
 recommended (thermochemical) frequency scaling factor: 1.0
           -------------------------------------------------
          |             Thermodynamic Functions             |
           -------------------------------------------------

Molecule has no symmetry elements
It seems to be the C1 point group
c1  symmetry found (for desy threshold:  0.10E+00) used in thermo

          ...................................................
          :                      SETUP                      :
          :.................................................:
          :  # frequencies                          72      :
          :  # imaginary freq.                       0      :
          :  linear?                             false      :
          :  only rotor calc.                    false      :
          :  symmetry                               c1      :
          :  rotational number                       1      :
          :  scaling factor                  1.0000000      :
          :  rotor cutoff                   50.0000000 cm⁻¹ :
          :  imag. cutoff                  -20.0000000 cm⁻¹ :
          :.................................................:

    mode    ω/cm⁻¹     T·S(HO)/kcal·mol⁻¹    T·S(FR)/kcal·mol⁻¹   T·S(vib)
   ------------------------------------------------------------------------
       1     27.01    -1.80018 (  7.85%)    -1.23873 ( 92.15%)    -1.28278
       2     70.46    -1.23450 ( 79.77%)    -0.95484 ( 20.23%)    -1.17792
       3     81.98    -1.14579 ( 87.84%)    -0.91000 ( 12.16%)    -1.11712
       4    127.39    -0.89001 ( 97.68%)    -0.77944 (  2.32%)    -0.88744
       5    129.68    -0.87979 ( 97.84%)    -0.77417 (  2.16%)    -0.87751
       6    199.79    -0.63655 ( 99.61%)    -0.64614 (  0.39%)    -0.63659
       7    204.41    -0.62403 ( 99.64%)    -0.63937 (  0.36%)    -0.62409
       8    228.08    -0.56469 ( 99.77%)    -0.60692 (  0.23%)    -0.56479
       9    261.76    -0.49196 ( 99.87%)    -0.56613 (  0.13%)    -0.49206
      10    277.25    -0.46231 ( 99.89%)    -0.54910 (  0.11%)    -0.46240
      11    283.89    -0.45025 ( 99.90%)    -0.54208 (  0.10%)    -0.45033
   ------------------------------------------------------------------------

   temp. (K)  partition function   enthalpy   heat capacity  entropy
                                   cal/mol     cal/K/mol   cal/K/mol   J/K/mol
 298.15  VIB  0.119E+05             6091.253     39.516     37.049
         ROT  0.113E+07              888.752      2.981     30.681
         INT  0.135E+11             6980.005     42.496     67.730
         TR   0.207E+28             1481.254      4.968     41.214
         TOT                        8461.2592    47.4646   108.9441   455.8219

       T/K    H(0)-H(T)+PV         H(T)/Eh          T*S/Eh         G(T)/Eh
   ------------------------------------------------------------------------
    298.15    0.134839E-01    0.232539E+00    0.517628E-01    0.180776E+00
   ------------------------------------------------------------------------

         :::::::::::::::::::::::::::::::::::::::::::::::::::::
         ::                  THERMODYNAMIC                  ::
         :::::::::::::::::::::::::::::::::::::::::::::::::::::
         :: total free energy         -31.375154628662 Eh   ::
         ::.................................................::
         :: total energy              -31.555930347754 Eh   ::
         :: zero point energy           0.219054681411 Eh   ::
         :: G(RRHO) w/o ZPVE           -0.038278962319 Eh   ::
         :: G(RRHO) contrib.            0.180775719091 Eh   ::
         :::::::::::::::::::::::::::::::::::::::::::::::::::::

optimized geometry written to: xtbopt.xyz


           -------------------------------------------------
          | TOTAL ENERGY              -31.555930347754 Eh   |
          | TOTAL ENTHALPY            -31.323391791556 Eh   |
          | TOTAL FREE ENERGY         -31.375154628662 Eh   |
          | GRADIENT NORM               0.000033638346 Eh/α |
          | HOMO-LUMO GAP               3.636743768941 eV   |
           -------------------------------------------------

------------------------------------------------------------------------
 * finished run on 2025/07/14 at 11:38:15.966     
------------------------------------------------------------------------
 total:
 * wall-time:     0 d,  0 h,  0 min,  7.741 sec
 *  cpu-time:     0 d,  0 h,  1 min, 19.210 sec
 * ratio c/w:    10.232 speedup
 SCF:
 * wall-time:     0 d,  0 h,  0 min,  0.087 sec
 *  cpu-time:     0 d,  0 h,  0 min,  1.036 sec
 * ratio c/w:    11.877 speedup
 ANC optimizer:
 * wall-time:     0 d,  0 h,  0 min,  4.360 sec
 *  cpu-time:     0 d,  0 h,  0 min, 51.933 sec
 * ratio c/w:    11.910 speedup
 analytical hessian:
 * wall-time:     0 d,  0 h,  0 min,  3.284 sec
 *  cpu-time:     0 d,  0 h,  0 min, 26.141 sec
 * ratio c/w:     7.960 speedup

