      -----------------------------------------------------------      
     |                   =====================                   |     
     |                           x T B                           |     
     |                   =====================                   |     
     |                         S. Grimme                         |     
     |          Mulliken Center for Theoretical Chemistry        |     
     |                    University of Bonn                     |     
      -----------------------------------------------------------      

   * xtb version 6.7.0 (08769fc) compiled by 'albert@albert-system' on 2024-03-04

   xtb is free software: you can redistribute it and/or modify it under
   the terms of the GNU Lesser General Public License as published by
   the Free Software Foundation, either version 3 of the License, or
   (at your option) any later version.
   
   xtb is distributed in the hope that it will be useful,
   but WITHOUT ANY WARRANTY; without even the implied warranty of
   MERCHANTABILITY or FITNESS FOR A PARTICULAR PURPOSE.  See the
   GNU Lesser General Public License for more details.
   
   Cite this work as:
   * C. Bannwarth, E. Caldeweyher, S. Ehlert, A. Hansen, P. Pracht,
     J. Seibert, S. Spicher, S. Grimme, WIREs Comput. Mol. Sci., 2020, 11,
     e01493. DOI: 10.1002/wcms.1493
   
   for GFN2-xTB:
   * C. Bannwarth, S. Ehlert and S. Grimme., J. Chem. Theory Comput., 2019,
     15, 1652-1671. DOI: 10.1021/acs.jctc.8b01176
   for GFN1-xTB:
   * S. Grimme, C. Bannwarth, P. Shushkov, J. Chem. Theory Comput., 2017,
     13, 1989-2009. DOI: 10.1021/acs.jctc.7b00118
   for GFN0-xTB:
   * P. Pracht, E. Caldeweyher, S. Ehlert, S. Grimme, ChemRxiv, 2019, preprint.
     DOI: 10.26434/chemrxiv.8326202.v1
   for GFN-FF:
   * S. Spicher and S. Grimme, Angew. Chem. Int. Ed., 2020, 59, 15665-15673.
     DOI: 10.1002/anie.202004239
   
   for ALPB and GBSA implicit solvation:
   * S. Ehlert, M. Stahn, S. Spicher, S. Grimme, J. Chem. Theory Comput.,
     2021, 17, 4250-4261. DOI: 10.1021/acs.jctc.1c00471
   
   for ddCOSMO and CPCM-X implicit solvation:
   * M. Stahn, S. Ehlert, S. Grimme, J. Phys. Chem. A,
     2023, XX, XXXX-XXXX. DOI: 10.1021/acs.jpca.3c04382
   
   for DFT-D4:
   * E. Caldeweyher, C. Bannwarth and S. Grimme, J. Chem. Phys., 2017,
     147, 034112. DOI: 10.1063/1.4993215
   * E. Caldeweyher, S. Ehlert, A. Hansen, H. Neugebauer, S. Spicher,
     C. Bannwarth and S. Grimme, J. Chem. Phys., 2019, 150, 154122.
     DOI: 10.1063/1.5090222
   * E. Caldeweyher, J.-M. Mewes, S. Ehlert and S. Grimme, Phys. Chem. Chem. Phys.
     2020, 22, 8499-8512. DOI: 10.1039/D0CP00502A
   
   for sTDA-xTB:
   * S. Grimme and C. Bannwarth, J. Chem. Phys., 2016, 145, 054103.
     DOI: 10.1063/1.4959605
   
   in the mass-spec context:
   * V. Asgeirsson, C. Bauer and S. Grimme, Chem. Sci., 2017, 8, 4879.
     DOI: 10.1039/c7sc00601b
   * J. Koopman and S. Grimme, ACS Omega 2019, 4, 12, 15120-15133.
     DOI: 10.1021/acsomega.9b02011
   
   for metadynamics refer to:
   * S. Grimme, J. Chem. Theory Comput., 2019, 155, 2847-2862
     DOI: 10.1021/acs.jctc.9b00143
   
   for SPH calculations refer to:
   * S. Spicher and S. Grimme, J. Chem. Theory Comput., 2021, 17, 1701-1714
     DOI: 10.1021/acs.jctc.0c01306
   
   for ONIOM refer to:
   * C. Plett, A. Katbashev, S. Ehlert, S. Grimme, M. Bursch,
     Phys. Chem. Chem. Phys., 2023, 25, 17860-17868. DOI: 10.1039/D3CP02178E
   
   for DIPRO refer to:
   * J. Kohn, N. Gildemeister, S. Grimme, D. Fazzi, A. Hansen,
     J. Chem. Phys., 2023, just accepted.
   
   for PTB refer to:
   * S. Grimme, M. Mueller, A. Hansen, J. Chem. Phys., 2023, 158, 124111.
     DOI: 10.1063/5.0137838
   
   with help from (in alphabetical order)
   P. Atkinson, C. Bannwarth, F. Bohle, G. Brandenburg, E. Caldeweyher
   M. Checinski, S. Dohm, S. Ehlert, S. Ehrlich, I. Gerasimov, C. Hölzer
   A. Katbashev, J. Kohn, J. Koopman, C. Lavigne, S. Lehtola, F. März, M. Müller,
   F. Musil, H. Neugebauer, J. Pisarek, C. Plett, P. Pracht, F. Pultar,
   J. Seibert, P. Shushkov, S. Spicher, M. Stahn, M. Steiner, T. Strunk,
   J. Stückrath, T. Rose, and J. Unsleber
   
 * started run on 2025/07/14 at 11:34:58.140     
   ID    Z sym.   atoms
    1   15 P      1
    2    6 C      2, 5, 9-14, 20, 23
    3    1 H      3, 4, 6-8, 15-19, 21, 22, 24-26

           -------------------------------------------------
          |                Calculation Setup                |
           -------------------------------------------------

          program call               : /home/minenky/programs/xtb/xtb-dist/bin/xtb m1_00_PEt2Ph-PBE0-D3-TZ-uniMM_54.xyz --charge 0 --T --ohess extreme --cycles 5000 --acc 0.01 --iterations 5000
          coordinate file            : m1_00_PEt2Ph-PBE0-D3-TZ-uniMM_54.xyz
          omp threads                :                    12

########################################################################
[WARNING] Please study the warnings concerning your input carefully
-1- prog_main_parseArguments: Unknown option '--T' provided
########################################################################

           -------------------------------------------------
          |                 G F N 2 - x T B                 |
           -------------------------------------------------

        Reference                      10.1021/acs.jctc.8b01176
      * Hamiltonian:
        H0-scaling (s, p, d)           1.850000    2.230000    2.230000
        zeta-weighting                 0.500000
      * Dispersion:
        s8                             2.700000
        a1                             0.520000
        a2                             5.000000
        s9                             5.000000
      * Repulsion:
        kExp                           1.500000    1.000000
        rExp                           1.000000
      * Coulomb:
        alpha                          2.000000
        third order                    shell-resolved
        anisotropic                    true
        a3                             3.000000
        a5                             4.000000
        cn-shift                       1.200000
        cn-exp                         4.000000
        max-rad                        5.000000


          ...................................................
          :                      SETUP                      :
          :.................................................:
          :  # basis functions                  65          :
          :  # atomic orbitals                  64          :
          :  # shells                           38          :
          :  # electrons                        60          :
          :  max. iterations                  5000          :
          :  Hamiltonian                  GFN2-xTB          :
          :  restarted?                      false          :
          :  GBSA solvation                  false          :
          :  PC potential                    false          :
          :  electronic temp.          300.0000000     K    :
          :  accuracy                    0.0100000          :
          :  -> integral cutoff          0.4500000E+02      :
          :  -> integral neglect         0.1000000E-09      :
          :  -> SCF convergence          0.1000000E-07 Eh   :
          :  -> wf. convergence          0.1000000E-05 e    :
          :  Broyden damping             0.4000000          :
          :  net charge                          0          :
          :  unpaired electrons                  0          :
          ...................................................

 iter      E             dE          RMSdq      gap      omega  full diag
   1    -32.0080742 -0.320081E+02  0.367E+00    3.97       0.0  T
   2    -32.0519789 -0.439047E-01  0.221E+00    3.54       1.0  T
   3    -32.0520149 -0.359787E-04  0.839E-01    3.30       1.0  T
   4    -32.0527925 -0.777601E-03  0.273E-01    3.33       1.0  T
   5    -32.0539116 -0.111909E-02  0.121E-01    3.37       1.0  T
   6    -32.0541143 -0.202741E-03  0.420E-02    3.36       1.0  T
   7    -32.0541299 -0.155524E-04  0.151E-02    3.36       1.3  T
   8    -32.0541302 -0.365267E-06  0.700E-03    3.36       2.8  T
   9    -32.0541307 -0.493917E-06  0.169E-03    3.36      11.6  T
  10    -32.0541308 -0.300906E-07  0.513E-04    3.36      38.3  T
  11    -32.0541308  0.117403E-09  0.251E-04    3.36      78.2  T
  12    -32.0541308 -0.619011E-09  0.558E-05    3.36     351.5  T
  13    -32.0541308 -0.932943E-11  0.150E-05    3.36    1310.1  T
  14    -32.0541308 -0.504485E-12  0.790E-06    3.36    2482.0  T
  15    -32.0541308 -0.262901E-12  0.241E-06    3.36    8121.2  T

   *** convergence criteria satisfied after 15 iterations ***

         #    Occupation            Energy/Eh            Energy/eV
      -------------------------------------------------------------
         1        2.0000           -0.6606959             -17.9785
       ...           ...                  ...                  ...
        24        2.0000           -0.4419733             -12.0267
        25        2.0000           -0.4232188             -11.5164
        26        2.0000           -0.4176457             -11.3647
        27        2.0000           -0.4079018             -11.0996
        28        2.0000           -0.4012644             -10.9190
        29        2.0000           -0.3997894             -10.8788
        30        2.0000           -0.3545266              -9.6472 (HOMO)
        31                         -0.2309394              -6.2842 (LUMO)
        32                         -0.2215770              -6.0294
        33                         -0.1564994              -4.2586
        34                         -0.1370584              -3.7296
        35                         -0.0928094              -2.5255
       ...                                ...                  ...
        64                          0.7816646              21.2702
      -------------------------------------------------------------
                  HL-Gap            0.1235872 Eh            3.3630 eV
             Fermi-level           -0.2927330 Eh           -7.9657 eV

 SCC (total)                   0 d,  0 h,  0 min,  0.097 sec
 SCC setup                      ...        0 min,  0.000 sec (  0.179%)
 Dispersion                     ...        0 min,  0.000 sec (  0.215%)
 classical contributions        ...        0 min,  0.000 sec (  0.070%)
 integral evaluation            ...        0 min,  0.003 sec (  2.820%)
 iterations                     ...        0 min,  0.090 sec ( 92.552%)
 molecular gradient             ...        0 min,  0.004 sec (  4.063%)
 printout                       ...        0 min,  0.000 sec (  0.087%)

         :::::::::::::::::::::::::::::::::::::::::::::::::::::
         ::                     SUMMARY                     ::
         :::::::::::::::::::::::::::::::::::::::::::::::::::::
         :: total energy             -31.539051025112 Eh    ::
         :: gradient norm              0.048984586014 Eh/a0 ::
         :: HOMO-LUMO gap              3.362978071110 eV    ::
         ::.................................................::
         :: SCC energy               -32.053890685576 Eh    ::
         :: -> isotropic ES            0.004289085929 Eh    ::
         :: -> anisotropic ES          0.005820551808 Eh    ::
         :: -> anisotropic XC          0.022343551228 Eh    ::
         :: -> dispersion             -0.024664819985 Eh    ::
         :: repulsion energy           0.514839660464 Eh    ::
         :: add. restraining           0.000000000000 Eh    ::
         :: total charge              -0.000000000000 e     ::
         :::::::::::::::::::::::::::::::::::::::::::::::::::::

      ----------------------------------------------------------- 
     |                   =====================                   |
     |                        A N C O P T                        |
     |                   =====================                   |
     |               Approximate Normal Coordinate               |
     |                Rational Function Optimizer                |
      ----------------------------------------------------------- 
      ----------------------------------------------------------- 
     |                   =====================                   |
     |                        A N C O P T                        |
     |                   =====================                   |
     |               Approximate Normal Coordinate               |
     |                Rational Function Optimizer                |
      ----------------------------------------------------------- 

          ...................................................
          :                      SETUP                      :
          :.................................................:
          :   optimization level           extreme          :
          :   max. optcycles                  5000          :
          :   ANC micro-cycles                  20          :
          :   degrees of freedom                72          :
          :.................................................:
          :   RF solver                   davidson          :
          :   write xtbopt.log                true          :
          :   linear?                        false          :
          :   energy convergence         0.5000000E-07 Eh   :
          :   grad. convergence          0.5000000E-04 Eh/α :
          :   maxmium RF displ.          1.0000000          :
          :   Hlow (freq-cutoff)         0.1000000E-01      :
          :   Hmax (freq-cutoff)         5.0000000          :
          :   S6 in model hess.         20.0000000          :
          ...................................................

generating ANC from model Hessian ...
Using Lindh-Hessian (1995)
 Shifting diagonal of input Hessian by   1.368253203994198E-002
 Lowest  eigenvalues of input Hessian
    0.010000    0.000000    0.000000    0.000000    0.000000    0.000000
    0.000000    0.014175    0.014845    0.015089    0.015538    0.017254
    0.018853    0.021410    0.022695    0.023881    0.027485    0.029301
 Highest eigenvalues
    1.351064    1.539208    1.566337    1.868215    1.970241    1.989944
 

........................................................................
.............................. CYCLE    1 ..............................
........................................................................

 iter      E             dE          RMSdq      gap      omega  full diag
   1    -32.0541308 -0.320541E+02  0.132E-06    3.36       0.0  T
   2    -32.0541308 -0.284217E-13  0.765E-07    3.36   25642.9  T
   3    -32.0541308  0.426326E-13  0.518E-07    3.36   37839.7  T
     SCC iter.                  ...        0 min,  0.072 sec
     gradient                   ...        0 min,  0.002 sec
 * total energy  :   -31.5390510 Eh     change       -0.4973799E-13 Eh
   gradient norm :     0.0489846 Eh/α   predicted     0.0000000E+00 (-100.00%)
   displ. norm   :     0.5038082 α      lambda       -0.1294081E-01
   maximum displ.:     0.2581401 α      in ANC's #2, #1, #12, ...

........................................................................
.............................. CYCLE    2 ..............................
........................................................................

 iter      E             dE          RMSdq      gap      omega  full diag
   1    -32.0653885 -0.320654E+02  0.346E-01    3.56       0.0  T
   2    -32.0655955 -0.206941E-03  0.172E-01    3.59       1.0  T
   3    -32.0656117 -0.161606E-04  0.655E-02    3.61       1.0  T
   4    -32.0656188 -0.716378E-05  0.340E-02    3.61       1.0  T
   5    -32.0656235 -0.467607E-05  0.117E-02    3.61       1.7  T
   6    -32.0656255 -0.205067E-05  0.394E-03    3.61       5.0  T
   7    -32.0656256 -0.335856E-07  0.144E-03    3.61      13.6  T
   8    -32.0656256 -0.147602E-07  0.409E-04    3.61      47.9  T
   9    -32.0656256 -0.337103E-08  0.138E-04    3.61     142.5  T
  10    -32.0656256 -0.159851E-09  0.636E-05    3.61     308.3  T
  11    -32.0656256 -0.139266E-10  0.249E-05    3.61     787.5  T
  12    -32.0656256 -0.611067E-12  0.769E-06    3.61    2550.6  T
  13    -32.0656256 -0.447642E-12  0.347E-06    3.61    5650.1  T
     SCC iter.                  ...        0 min,  0.074 sec
     gradient                   ...        0 min,  0.002 sec
 * total energy  :   -31.5472108 Eh     change       -0.8159727E-02 Eh
   gradient norm :     0.0179879 Eh/α   predicted    -0.8112819E-02 (  -0.57%)
   displ. norm   :     0.4388475 α      lambda       -0.4026024E-02
   maximum displ.:     0.2253484 α      in ANC's #2, #1, #9, ...

........................................................................
.............................. CYCLE    3 ..............................
........................................................................

 iter      E             dE          RMSdq      gap      omega  full diag
   1    -32.0685600 -0.320686E+02  0.160E-01    3.62       0.0  T
   2    -32.0685712 -0.111451E-04  0.976E-02    3.61       1.0  T
   3    -32.0685700  0.116383E-05  0.175E-02    3.61       1.1  T
   4    -32.0685724 -0.239892E-05  0.673E-03    3.61       2.9  T
   5    -32.0685728 -0.422686E-06  0.237E-03    3.61       8.3  T
   6    -32.0685729 -0.678423E-07  0.939E-04    3.61      20.9  T
   7    -32.0685729 -0.209241E-08  0.410E-04    3.61      47.9  T
   8    -32.0685729 -0.119279E-09  0.140E-04    3.61     140.6  T
   9    -32.0685729 -0.127173E-09  0.601E-05    3.61     326.4  T
  10    -32.0685729 -0.228866E-10  0.253E-05    3.61     774.7  T
  11    -32.0685729 -0.600409E-11  0.972E-06    3.61    2017.6  T
  12    -32.0685729 -0.824230E-12  0.415E-06    3.61    4723.2  T
     SCC iter.                  ...        0 min,  0.074 sec
     gradient                   ...        0 min,  0.002 sec
 * total energy  :   -31.5501894 Eh     change       -0.2978633E-02 Eh
   gradient norm :     0.0088631 Eh/α   predicted    -0.2400695E-02 ( -19.40%)
   displ. norm   :     0.4481264 α      lambda       -0.2273708E-02
   maximum displ.:     0.2366001 α      in ANC's #1, #2, #5, ...

........................................................................
.............................. CYCLE    4 ..............................
........................................................................

 iter      E             dE          RMSdq      gap      omega  full diag
   1    -32.0687672 -0.320688E+02  0.148E-01    3.62       0.0  T
   2    -32.0687764 -0.911618E-05  0.887E-02    3.62       1.0  T
   3    -32.0687751  0.123945E-05  0.160E-02    3.62       1.2  T
   4    -32.0687768 -0.168231E-05  0.793E-03    3.62       2.5  T
   5    -32.0687775 -0.753603E-06  0.206E-03    3.62       9.5  T
   6    -32.0687776 -0.790803E-07  0.854E-04    3.62      23.0  T
   7    -32.0687776 -0.218321E-08  0.357E-04    3.62      54.9  T
   8    -32.0687776 -0.170580E-09  0.166E-04    3.62     117.9  T
   9    -32.0687776 -0.279542E-09  0.525E-05    3.62     373.3  T
  10    -32.0687776 -0.314557E-10  0.250E-05    3.62     784.4  T
  11    -32.0687776 -0.223110E-11  0.102E-05    3.62    1924.3  T
  12    -32.0687776 -0.376588E-12  0.307E-06    3.62    6398.1  T
  13    -32.0687776 -0.639488E-13  0.121E-06    3.62   16201.5  T
     SCC iter.                  ...        0 min,  0.075 sec
     gradient                   ...        0 min,  0.002 sec
 * total energy  :   -31.5517595 Eh     change       -0.1570127E-02 Eh
   gradient norm :     0.0073887 Eh/α   predicted    -0.1365154E-02 ( -13.05%)
   displ. norm   :     0.3349742 α      lambda       -0.8800754E-03
   maximum displ.:     0.1979919 α      in ANC's #1, #7, #2, ...

........................................................................
.............................. CYCLE    5 ..............................
........................................................................

 iter      E             dE          RMSdq      gap      omega  full diag
   1    -32.0703409 -0.320703E+02  0.111E-01    3.61       0.0  T
   2    -32.0703436 -0.275811E-05  0.649E-02    3.60       1.0  T
   3    -32.0703435  0.164562E-06  0.696E-03    3.60       2.8  T
   4    -32.0703437 -0.267445E-06  0.418E-03    3.60       4.7  T
   5    -32.0703440 -0.254450E-06  0.127E-03    3.60      15.5  T
   6    -32.0703440 -0.106528E-07  0.492E-04    3.60      39.8  T
   7    -32.0703440 -0.178997E-08  0.204E-04    3.60      96.3  T
   8    -32.0703440 -0.156959E-09  0.942E-05    3.60     208.1  T
   9    -32.0703440 -0.109949E-09  0.288E-05    3.60     680.9  T
  10    -32.0703440 -0.341771E-11  0.969E-06    3.60    2023.0  T
  11    -32.0703440 -0.227374E-12  0.468E-06    3.60    4193.3  T
     SCC iter.                  ...        0 min,  0.073 sec
     gradient                   ...        0 min,  0.002 sec
 * total energy  :   -31.5523772 Eh     change       -0.6177268E-03 Eh
   gradient norm :     0.0061489 Eh/α   predicted    -0.4894148E-03 ( -20.77%)
   displ. norm   :     0.2645180 α      lambda       -0.4313097E-03
   maximum displ.:     0.1677823 α      in ANC's #1, #7, #5, ...

........................................................................
.............................. CYCLE    6 ..............................
........................................................................

 iter      E             dE          RMSdq      gap      omega  full diag
   1    -32.0718995 -0.320719E+02  0.978E-02    3.60       0.0  T
   2    -32.0719008 -0.126155E-05  0.564E-02    3.60       1.0  T
   3    -32.0719008 -0.402211E-08  0.552E-03    3.60       3.6  T
   4    -32.0719009 -0.119907E-06  0.244E-03    3.60       8.0  T
   5    -32.0719010 -0.667718E-07  0.888E-04    3.60      22.1  T
   6    -32.0719010  0.331859E-09  0.534E-04    3.60      36.7  T
   7    -32.0719010 -0.333672E-08  0.109E-04    3.60     180.6  T
   8    -32.0719010 -0.605738E-10  0.457E-05    3.60     429.3  T
   9    -32.0719010 -0.127329E-10  0.172E-05    3.60    1138.0  T
  10    -32.0719010 -0.916600E-12  0.595E-06    3.60    3293.8  T
  11    -32.0719010 -0.277112E-12  0.288E-06    3.60    6813.0  T
     SCC iter.                  ...        0 min,  0.073 sec
     gradient                   ...        0 min,  0.002 sec
 * total energy  :   -31.5526903 Eh     change       -0.3130593E-03 Eh
   gradient norm :     0.0035942 Eh/α   predicted    -0.2307500E-03 ( -26.29%)
   displ. norm   :     0.2530524 α      lambda       -0.2836303E-03
   maximum displ.:     0.1639587 α      in ANC's #1, #5, #7, ...

........................................................................
.............................. CYCLE    7 ..............................
........................................................................

 iter      E             dE          RMSdq      gap      omega  full diag
   1    -32.0729761 -0.320730E+02  0.982E-02    3.59       0.0  T
   2    -32.0729772 -0.110085E-05  0.572E-02    3.59       1.0  T
   3    -32.0729768  0.414675E-06  0.725E-03    3.59       2.7  T
   4    -32.0729774 -0.607123E-06  0.211E-03    3.59       9.3  T
   5    -32.0729774 -0.398390E-07  0.978E-04    3.59      20.1  T
   6    -32.0729774 -0.969634E-08  0.471E-04    3.59      41.6  T
   7    -32.0729774 -0.124004E-08  0.127E-04    3.59     154.1  T
   8    -32.0729774 -0.112372E-09  0.500E-05    3.59     392.6  T
   9    -32.0729774 -0.206057E-10  0.172E-05    3.59    1138.4  T
  10    -32.0729774 -0.343192E-11  0.759E-06    3.59    2584.2  T
  11    -32.0729774 -0.412115E-12  0.253E-06    3.59    7755.4  T
     SCC iter.                  ...        0 min,  0.073 sec
     gradient                   ...        0 min,  0.002 sec
 * total energy  :   -31.5529068 Eh     change       -0.2164600E-03 Eh
   gradient norm :     0.0033750 Eh/α   predicted    -0.1508966E-03 ( -30.29%)
   displ. norm   :     0.3238296 α      lambda       -0.2883276E-03
   maximum displ.:     0.1942138 α      in ANC's #1, #5, #7, ...

........................................................................
.............................. CYCLE    8 ..............................
........................................................................

 iter      E             dE          RMSdq      gap      omega  full diag
   1    -32.0729961 -0.320730E+02  0.121E-01    3.59       0.0  T
   2    -32.0729975 -0.140883E-05  0.709E-02    3.59       1.0  T
   3    -32.0729965  0.102704E-05  0.986E-03    3.59       2.0  T
   4    -32.0729978 -0.130733E-05  0.266E-03    3.59       7.4  T
   5    -32.0729979 -0.805659E-07  0.118E-03    3.59      16.7  T
   6    -32.0729979 -0.196840E-07  0.469E-04    3.59      41.8  T
   7    -32.0729979 -0.517524E-09  0.115E-04    3.59     171.0  T
   8    -32.0729979 -0.145270E-09  0.407E-05    3.59     481.6  T
   9    -32.0729979 -0.143388E-10  0.180E-05    3.59    1089.6  T
  10    -32.0729979 -0.205347E-11  0.713E-06    3.59    2751.1  T
  11    -32.0729979 -0.390799E-12  0.234E-06    3.59    8391.4  T
     SCC iter.                  ...        0 min,  0.073 sec
     gradient                   ...        0 min,  0.002 sec
 * total energy  :   -31.5531405 Eh     change       -0.2337561E-03 Eh
   gradient norm :     0.0064733 Eh/α   predicted    -0.1592828E-03 ( -31.86%)
   displ. norm   :     0.4792104 α      lambda       -0.4046182E-03
   maximum displ.:     0.2692116 α      in ANC's #1, #5, #6, ...

........................................................................
.............................. CYCLE    9 ..............................
........................................................................

 iter      E             dE          RMSdq      gap      omega  full diag
   1    -32.0714547 -0.320715E+02  0.171E-01    3.59       0.0  T
   2    -32.0714579 -0.323950E-05  0.101E-01    3.59       1.0  T
   3    -32.0714558  0.216566E-05  0.150E-02    3.59       1.3  T
   4    -32.0714585 -0.272825E-05  0.422E-03    3.59       4.6  T
   5    -32.0714587 -0.181034E-06  0.188E-03    3.59      10.4  T
   6    -32.0714587 -0.641874E-07  0.751E-04    3.59      26.1  T
   7    -32.0714587 -0.103454E-08  0.172E-04    3.59     114.0  T
   8    -32.0714587 -0.164242E-09  0.604E-05    3.59     324.5  T
   9    -32.0714587 -0.472866E-10  0.257E-05    3.59     763.8  T
  10    -32.0714587 -0.292033E-11  0.842E-06    3.59    2330.3  T
  11    -32.0714587 -0.767386E-12  0.307E-06    3.59    6383.1  T
     SCC iter.                  ...        0 min,  0.073 sec
     gradient                   ...        0 min,  0.002 sec
 * total energy  :   -31.5534602 Eh     change       -0.3197248E-03 Eh
   gradient norm :     0.0105884 Eh/α   predicted    -0.2487805E-03 ( -22.19%)
   displ. norm   :     0.4858656 α      lambda       -0.4515077E-03
   maximum displ.:     0.2594602 α      in ANC's #5, #1, #4, ...

........................................................................
.............................. CYCLE   10 ..............................
........................................................................

 iter      E             dE          RMSdq      gap      omega  full diag
   1    -32.0698056 -0.320698E+02  0.169E-01    3.60       0.0  T
   2    -32.0698089 -0.332148E-05  0.997E-02    3.60       1.0  T
   3    -32.0698072  0.175146E-05  0.139E-02    3.60       1.4  T
   4    -32.0698094 -0.216709E-05  0.487E-03    3.60       4.0  T
   5    -32.0698096 -0.242282E-06  0.202E-03    3.60       9.7  T
   6    -32.0698097 -0.823549E-07  0.860E-04    3.60      22.8  T
   7    -32.0698097 -0.117863E-08  0.180E-04    3.60     108.8  T
   8    -32.0698097 -0.525020E-10  0.580E-05    3.60     338.0  T
   9    -32.0698097 -0.425970E-10  0.229E-05    3.60     856.7  T
  10    -32.0698097 -0.517275E-11  0.786E-06    3.60    2496.4  T
  11    -32.0698097 -0.291323E-12  0.364E-06    3.60    5391.7  T
     SCC iter.                  ...        0 min,  0.073 sec
     gradient                   ...        0 min,  0.002 sec
 * total energy  :   -31.5538089 Eh     change       -0.3486724E-03 Eh
   gradient norm :     0.0122540 Eh/α   predicted    -0.2790473E-03 ( -19.97%)
   displ. norm   :     0.3843827 α      lambda       -0.5601635E-03
   maximum displ.:     0.2029739 α      in ANC's #5, #1, #4, ...

........................................................................
.............................. CYCLE   11 ..............................
........................................................................

 iter      E             dE          RMSdq      gap      omega  full diag
   1    -32.0717353 -0.320717E+02  0.136E-01    3.62       0.0  T
   2    -32.0717376 -0.236512E-05  0.792E-02    3.62       1.0  T
   3    -32.0717372  0.417559E-06  0.863E-03    3.62       2.3  T
   4    -32.0717378 -0.593360E-06  0.393E-03    3.62       5.0  T
   5    -32.0717380 -0.199402E-06  0.154E-03    3.62      12.7  T
   6    -32.0717381 -0.428195E-07  0.727E-04    3.62      27.0  T
   7    -32.0717381 -0.644938E-09  0.127E-04    3.62     154.8  T
   8    -32.0717381 -0.678497E-10  0.520E-05    3.62     377.2  T
   9    -32.0717381 -0.262261E-10  0.173E-05    3.62    1134.6  T
  10    -32.0717381 -0.142109E-11  0.884E-06    3.62    2217.3  T
  11    -32.0717381 -0.234479E-12  0.416E-06    3.62    4708.9  T
     SCC iter.                  ...        0 min,  0.073 sec
     gradient                   ...        0 min,  0.002 sec
 * total energy  :   -31.5542138 Eh     change       -0.4048487E-03 Eh
   gradient norm :     0.0075606 Eh/α   predicted    -0.3214708E-03 ( -20.59%)
   displ. norm   :     0.4804916 α      lambda       -0.4238221E-03
   maximum displ.:     0.2979133 α      in ANC's #5, #1, #6, ...

........................................................................
.............................. CYCLE   12 ..............................
........................................................................

 iter      E             dE          RMSdq      gap      omega  full diag
   1    -32.0690056 -0.320690E+02  0.168E-01    3.64       0.0  T
   2    -32.0690095 -0.389008E-05  0.989E-02    3.64       1.0  T
   3    -32.0690089  0.584547E-06  0.152E-02    3.63       1.3  T
   4    -32.0690102 -0.122639E-05  0.391E-03    3.64       5.0  T
   5    -32.0690102 -0.228035E-07  0.188E-03    3.64      10.4  T
   6    -32.0690102 -0.185234E-07  0.984E-04    3.64      19.9  T
   7    -32.0690102 -0.277392E-08  0.227E-04    3.64      86.3  T
   8    -32.0690102 -0.109544E-09  0.609E-05    3.64     322.2  T
   9    -32.0690102 -0.284004E-10  0.219E-05    3.64     894.1  T
  10    -32.0690102 -0.100968E-10  0.866E-06    3.64    2263.4  T
  11    -32.0690102 -0.419220E-12  0.390E-06    3.64    5028.7  T
     SCC iter.                  ...        0 min,  0.073 sec
     gradient                   ...        0 min,  0.002 sec
 * total energy  :   -31.5545199 Eh     change       -0.3061132E-03 Eh
   gradient norm :     0.0089920 Eh/α   predicted    -0.2608406E-03 ( -14.79%)
   displ. norm   :     0.3371303 α      lambda       -0.6027163E-03
   maximum displ.:     0.2314537 α      in ANC's #5, #1, #2, ...

........................................................................
.............................. CYCLE   13 ..............................
........................................................................

 iter      E             dE          RMSdq      gap      omega  full diag
   1    -32.0755169 -0.320755E+02  0.131E-01    3.66       0.0  T
   2    -32.0755193 -0.240245E-05  0.761E-02    3.65       1.0  T
   3    -32.0755183  0.974852E-06  0.122E-02    3.66       1.6  T
   4    -32.0755198 -0.147501E-05  0.351E-03    3.65       5.6  T
   5    -32.0755198  0.845931E-08  0.226E-03    3.65       8.7  T
   6    -32.0755198 -0.683551E-07  0.638E-04    3.66      30.7  T
   7    -32.0755198 -0.139297E-08  0.229E-04    3.66      85.5  T
   8    -32.0755198 -0.374975E-09  0.596E-05    3.66     328.9  T
   9    -32.0755198 -0.284217E-10  0.244E-05    3.66     803.8  T
  10    -32.0755198 -0.216005E-11  0.106E-05    3.66    1848.9  T
  11    -32.0755198 -0.774492E-12  0.489E-06    3.66    4009.5  T
  12    -32.0755198 -0.994760E-13  0.981E-07    3.66   19996.3  T
     SCC iter.                  ...        0 min,  0.074 sec
     gradient                   ...        0 min,  0.002 sec
 * total energy  :   -31.5548186 Eh     change       -0.2987521E-03 Eh
   gradient norm :     0.0094195 Eh/α   predicted    -0.3356105E-03 (  12.34%)
   displ. norm   :     0.5368117 α      lambda       -0.4469870E-03
   maximum displ.:     0.3563130 α      in ANC's #5, #1, #6, ...

........................................................................
.............................. CYCLE   14 ..............................
........................................................................

 iter      E             dE          RMSdq      gap      omega  full diag
   1    -32.0698410 -0.320698E+02  0.187E-01    3.66       0.0  T
   2    -32.0698490 -0.797307E-05  0.109E-01    3.66       1.0  T
   3    -32.0698482  0.847778E-06  0.203E-02    3.66       1.0  T
   4    -32.0698500 -0.187635E-05  0.503E-03    3.66       3.9  T
   5    -32.0698501 -0.517873E-07  0.234E-03    3.66       8.4  T
   6    -32.0698501 -0.295031E-07  0.118E-03    3.66      16.6  T
   7    -32.0698501 -0.613709E-08  0.345E-04    3.66      56.9  T
   8    -32.0698501 -0.305249E-09  0.843E-05    3.66     232.7  T
   9    -32.0698501 -0.483951E-10  0.374E-05    3.66     524.0  T
  10    -32.0698501 -0.106297E-10  0.151E-05    3.66    1301.9  T
  11    -32.0698501 -0.147793E-11  0.536E-06    3.66    3655.8  T
  12    -32.0698501 -0.184741E-12  0.168E-06    3.66   11708.1  T
     SCC iter.                  ...        0 min,  0.073 sec
     gradient                   ...        0 min,  0.002 sec
 * total energy  :   -31.5550668 Eh     change       -0.2481955E-03 Eh
   gradient norm :     0.0102986 Eh/α   predicted    -0.2879000E-03 (  16.00%)
   displ. norm   :     0.1197150 α      lambda       -0.3109710E-03
   maximum displ.:     0.0828359 α      in ANC's #5, #6, #1, ...

........................................................................
.............................. CYCLE   15 ..............................
........................................................................

 iter      E             dE          RMSdq      gap      omega  full diag
   1    -32.0726375 -0.320726E+02  0.531E-02    3.66       0.0  T
   2    -32.0726381 -0.658390E-06  0.294E-02    3.66       1.0  T
   3    -32.0726379  0.203514E-06  0.817E-03    3.66       2.4  T
   4    -32.0726383 -0.336438E-06  0.175E-03    3.66      11.2  T
   5    -32.0726383 -0.364366E-10  0.947E-04    3.66      20.7  T
   6    -32.0726383 -0.101208E-07  0.475E-04    3.66      41.3  T
   7    -32.0726383 -0.118513E-08  0.100E-04    3.66     195.3  T
   8    -32.0726383 -0.318536E-10  0.440E-05    3.66     446.0  T
   9    -32.0726383 -0.120721E-10  0.160E-05    3.66    1223.2  T
  10    -32.0726383 -0.233058E-11  0.522E-06    3.66    3759.1  T
  11    -32.0726383 -0.127898E-12  0.208E-06    3.66    9435.6  T
     SCC iter.                  ...        0 min,  0.073 sec
     gradient                   ...        0 min,  0.002 sec
 * total energy  :   -31.5553046 Eh     change       -0.2378050E-03 Eh
   gradient norm :     0.0061496 Eh/α   predicted    -0.1577151E-03 ( -33.68%)
   displ. norm   :     0.3459955 α      lambda       -0.3949729E-03
   maximum displ.:     0.2468240 α      in ANC's #5, #6, #2, ...

........................................................................
.............................. CYCLE   16 ..............................
........................................................................

 iter      E             dE          RMSdq      gap      omega  full diag
   1    -32.0758460 -0.320758E+02  0.125E-01    3.66       0.0  T
   2    -32.0758479 -0.196980E-05  0.733E-02    3.66       1.0  T
   3    -32.0758469  0.104206E-05  0.981E-03    3.66       2.0  T
   4    -32.0758483 -0.139607E-05  0.317E-03    3.66       6.2  T
   5    -32.0758484 -0.910724E-07  0.121E-03    3.66      16.1  T
   6    -32.0758484 -0.204550E-07  0.643E-04    3.66      30.5  T
   7    -32.0758484 -0.162711E-08  0.161E-04    3.66     121.8  T
   8    -32.0758484 -0.426965E-09  0.474E-05    3.66     413.3  T
   9    -32.0758484 -0.233200E-10  0.201E-05    3.66     978.0  T
  10    -32.0758484 -0.318323E-11  0.751E-06    3.66    2611.2  T
  11    -32.0758484 -0.383693E-12  0.263E-06    3.66    7464.3  T
     SCC iter.                  ...        0 min,  0.073 sec
     gradient                   ...        0 min,  0.002 sec
 * total energy  :   -31.5555725 Eh     change       -0.2678714E-03 Eh
   gradient norm :     0.0060409 Eh/α   predicted    -0.2211311E-03 ( -17.45%)
   displ. norm   :     0.3543165 α      lambda       -0.2990653E-03
   maximum displ.:     0.2512797 α      in ANC's #5, #6, #2, ...

........................................................................
.............................. CYCLE   17 ..............................
........................................................................

 iter      E             dE          RMSdq      gap      omega  full diag
   1    -32.0763415 -0.320763E+02  0.128E-01    3.66       0.0  T
   2    -32.0763426 -0.112004E-05  0.741E-02    3.66       1.0  T
   3    -32.0763425  0.171014E-06  0.601E-03    3.66       3.3  T
   4    -32.0763427 -0.259421E-06  0.324E-03    3.66       6.1  T
   5    -32.0763429 -0.187045E-06  0.905E-04    3.66      21.7  T
   6    -32.0763429 -0.138050E-08  0.442E-04    3.66      44.4  T
   7    -32.0763429 -0.137601E-08  0.130E-04    3.66     151.4  T
   8    -32.0763429 -0.180989E-09  0.373E-05    3.66     525.8  T
   9    -32.0763429 -0.198526E-10  0.193E-05    3.66    1014.7  T
  10    -32.0763429 -0.250822E-11  0.521E-06    3.66    3766.8  T
  11    -32.0763429 -0.362377E-12  0.172E-06    3.66   11375.5  T
     SCC iter.                  ...        0 min,  0.073 sec
     gradient                   ...        0 min,  0.002 sec
 * total energy  :   -31.5557835 Eh     change       -0.2109721E-03 Eh
   gradient norm :     0.0082284 Eh/α   predicted    -0.1683052E-03 ( -20.22%)
   displ. norm   :     0.4364973 α      lambda       -0.3767217E-03
   maximum displ.:     0.2834979 α      in ANC's #5, #2, #6, ...

........................................................................
.............................. CYCLE   18 ..............................
........................................................................

 iter      E             dE          RMSdq      gap      omega  full diag
   1    -32.0775658 -0.320776E+02  0.145E-01    3.66       0.0  T
   2    -32.0775675 -0.169253E-05  0.852E-02    3.66       1.0  T
   3    -32.0775666  0.868504E-06  0.924E-03    3.66       2.1  T
   4    -32.0775678 -0.119897E-05  0.332E-03    3.66       5.9  T
   5    -32.0775679 -0.952031E-07  0.138E-03    3.66      14.2  T
   6    -32.0775679 -0.290021E-07  0.758E-04    3.66      25.9  T
   7    -32.0775679 -0.116390E-08  0.160E-04    3.66     122.5  T
   8    -32.0775679 -0.259476E-09  0.538E-05    3.66     364.5  T
   9    -32.0775679 -0.371543E-10  0.220E-05    3.66     891.2  T
  10    -32.0775679 -0.255085E-11  0.686E-06    3.66    2858.0  T
  11    -32.0775679 -0.419220E-12  0.371E-06    3.66    5281.2  T
     SCC iter.                  ...        0 min,  0.075 sec
     gradient                   ...        0 min,  0.002 sec
 * total energy  :   -31.5560649 Eh     change       -0.2814684E-03 Eh
   gradient norm :     0.0062992 Eh/α   predicted    -0.2242541E-03 ( -20.33%)
   displ. norm   :     0.5469369 α      lambda       -0.3680918E-03
   maximum displ.:     0.3415523 α      in ANC's #5, #2, #6, ...

........................................................................
.............................. CYCLE   19 ..............................
........................................................................

 iter      E             dE          RMSdq      gap      omega  full diag
   1    -32.0745796 -0.320746E+02  0.174E-01    3.67       0.0  T
   2    -32.0745846 -0.499243E-05  0.102E-01    3.67       1.0  T
   3    -32.0745835  0.105765E-05  0.154E-02    3.67       1.3  T
   4    -32.0745852 -0.168327E-05  0.506E-03    3.67       3.9  T
   5    -32.0745852 -0.531363E-07  0.308E-03    3.67       6.4  T
   6    -32.0745854 -0.140297E-06  0.139E-03    3.67      14.1  T
   7    -32.0745854 -0.363315E-08  0.332E-04    3.67      59.0  T
   8    -32.0745854 -0.816698E-10  0.977E-05    3.67     200.7  T
   9    -32.0745854 -0.159758E-09  0.383E-05    3.67     511.7  T
  10    -32.0745854 -0.853362E-11  0.146E-05    3.67    1346.5  T
  11    -32.0745854 -0.909495E-12  0.443E-06    3.67    4422.1  T
  12    -32.0745854 -0.113687E-12  0.156E-06    3.67   12565.9  T
     SCC iter.                  ...        0 min,  0.074 sec
     gradient                   ...        0 min,  0.002 sec
 * total energy  :   -31.5562687 Eh     change       -0.2038076E-03 Eh
   gradient norm :     0.0084252 Eh/α   predicted    -0.2391075E-03 (  17.32%)
   displ. norm   :     0.4735757 α      lambda       -0.6299849E-03
   maximum displ.:     0.2821687 α      in ANC's #4, #1, #2, ...

........................................................................
.............................. CYCLE   20 ..............................
........................................................................

 iter      E             dE          RMSdq      gap      omega  full diag
   1    -32.0836167 -0.320836E+02  0.152E-01    3.69       0.0  T
   2    -32.0836276 -0.108830E-04  0.820E-02    3.68       1.0  T
   3    -32.0836265  0.103920E-05  0.313E-02    3.69       1.0  T
   4    -32.0836293 -0.274051E-05  0.504E-03    3.69       3.9  T
   5    -32.0836293 -0.797747E-07  0.282E-03    3.69       7.0  T
   6    -32.0836294 -0.671228E-07  0.125E-03    3.69      15.7  T
   7    -32.0836294 -0.993583E-08  0.376E-04    3.69      52.1  T
   8    -32.0836294 -0.769610E-09  0.122E-04    3.69     160.7  T
   9    -32.0836294 -0.140489E-09  0.561E-05    3.69     349.4  T
  10    -32.0836294 -0.100826E-10  0.232E-05    3.69     845.6  T
  11    -32.0836294 -0.256506E-11  0.748E-06    3.69    2620.4  T
  12    -32.0836294 -0.390799E-12  0.283E-06    3.69    6937.5  T
     SCC iter.                  ...        0 min,  0.074 sec
     gradient                   ...        0 min,  0.002 sec
 * total energy  :   -31.5560997 Eh     change        0.1690763E-03 Eh
   gradient norm :     0.0191282 Eh/α   predicted    -0.3856370E-03 (-328.08%)
   displ. norm   :     0.2062775 α      lambda       -0.8730537E-03
   maximum displ.:     0.1376548 α      in ANC's #5, #1, #6, ...
 * RMSD in coord.:     1.1206772 α      energy gain  -0.1704864E-01 Eh

generating ANC from model Hessian ...
Using Lindh-Hessian (1995)
 Shifting diagonal of input Hessian by   9.156672431752992E-003
 Lowest  eigenvalues of input Hessian
    0.000000    0.000000    0.000000    0.000000    0.000000    0.000000
    0.010000    0.010115    0.010559    0.011133    0.011681    0.012663
    0.014977    0.016506    0.018412    0.018621    0.023757    0.024303
 Highest eigenvalues
    1.360537    1.553116    1.570204    1.878486    1.982922    1.998754
 

........................................................................
.............................. CYCLE   21 ..............................
........................................................................

 iter      E             dE          RMSdq      gap      omega  full diag
   1    -32.0763276 -0.320763E+02  0.956E-02    3.67       0.0  T
   2    -32.0763332 -0.568534E-05  0.519E-02    3.67       1.0  T
   3    -32.0763330  0.293601E-06  0.226E-02    3.67       1.0  T
   4    -32.0763343 -0.129786E-05  0.439E-03    3.67       4.5  T
   5    -32.0763343 -0.384839E-08  0.211E-03    3.67       9.3  T
   6    -32.0763343 -0.521860E-07  0.102E-03    3.67      19.2  T
   7    -32.0763343 -0.418585E-08  0.328E-04    3.67      59.8  T
   8    -32.0763343 -0.248093E-09  0.102E-04    3.67     192.4  T
   9    -32.0763343 -0.104542E-09  0.323E-05    3.67     606.9  T
  10    -32.0763343 -0.674305E-11  0.132E-05    3.67    1490.7  T
  11    -32.0763343 -0.223110E-11  0.534E-06    3.67    3669.7  T
  12    -32.0763343 -0.639488E-13  0.152E-06    3.67   12883.5  T
     SCC iter.                  ...        0 min,  0.074 sec
     gradient                   ...        0 min,  0.002 sec
 * total energy  :   -31.5565310 Eh     change       -0.4313334E-03 Eh
   gradient norm :     0.0067967 Eh/α   predicted     0.0000000E+00 (-100.00%)
   displ. norm   :     0.0659124 α      lambda       -0.1519695E-03
   maximum displ.:     0.0339238 α      in ANC's #1, #10, #9, ...

........................................................................
.............................. CYCLE   22 ..............................
........................................................................

 iter      E             dE          RMSdq      gap      omega  full diag
   1    -32.0774065 -0.320774E+02  0.327E-02    3.67       0.0  T
   2    -32.0774067 -0.247912E-06  0.190E-02    3.67       1.0  T
   3    -32.0774066  0.726326E-07  0.282E-03    3.67       7.0  T
   4    -32.0774067 -0.104298E-06  0.916E-04    3.67      21.4  T
   5    -32.0774067 -0.163728E-07  0.458E-04    3.67      42.8  T
   6    -32.0774068 -0.131934E-08  0.182E-04    3.67     107.6  T
   7    -32.0774068 -0.191257E-09  0.585E-05    3.67     335.2  T
   8    -32.0774068 -0.263185E-10  0.237E-05    3.67     828.5  T
   9    -32.0774068 -0.557066E-11  0.804E-06    3.67    2439.6  T
  10    -32.0774068 -0.305533E-12  0.392E-06    3.67    5000.5  T
     SCC iter.                  ...        0 min,  0.073 sec
     gradient                   ...        0 min,  0.002 sec
 * total energy  :   -31.5566420 Eh     change       -0.1109966E-03 Eh
   gradient norm :     0.0021885 Eh/α   predicted    -0.7632861E-04 ( -31.23%)
   displ. norm   :     0.1175362 α      lambda       -0.1139330E-03
   maximum displ.:     0.0665733 α      in ANC's #1, #10, #9, ...

........................................................................
.............................. CYCLE   23 ..............................
........................................................................

 iter      E             dE          RMSdq      gap      omega  full diag
   1    -32.0779745 -0.320780E+02  0.399E-02    3.66       0.0  T
   2    -32.0779747 -0.238385E-06  0.234E-02    3.66       1.0  T
   3    -32.0779747  0.731382E-07  0.263E-03    3.66       7.5  T
   4    -32.0779748 -0.103573E-06  0.990E-04    3.66      19.8  T
   5    -32.0779748 -0.207809E-07  0.428E-04    3.66      45.8  T
   6    -32.0779748 -0.700304E-09  0.171E-04    3.66     114.8  T
   7    -32.0779748 -0.260080E-09  0.516E-05    3.66     380.0  T
   8    -32.0779748 -0.233769E-10  0.228E-05    3.66     861.8  T
   9    -32.0779748 -0.404299E-11  0.708E-06    3.66    2771.9  T
  10    -32.0779748 -0.689226E-12  0.275E-06    3.66    7138.6  T
     SCC iter.                  ...        0 min,  0.075 sec
     gradient                   ...        0 min,  0.002 sec
 * total energy  :   -31.5567202 Eh     change       -0.7815511E-04 Eh
   gradient norm :     0.0025452 Eh/α   predicted    -0.5775751E-04 ( -26.10%)
   displ. norm   :     0.1217513 α      lambda       -0.6611875E-04
   maximum displ.:     0.0716041 α      in ANC's #1, #10, #9, ...

........................................................................
.............................. CYCLE   24 ..............................
........................................................................

 iter      E             dE          RMSdq      gap      omega  full diag
   1    -32.0778749 -0.320779E+02  0.362E-02    3.66       0.0  T
   2    -32.0778750 -0.117713E-06  0.210E-02    3.66       1.0  T
   3    -32.0778750  0.199114E-07  0.196E-03    3.66      10.0  T
   4    -32.0778750 -0.186507E-07  0.102E-03    3.66      19.2  T
   5    -32.0778750 -0.268126E-07  0.273E-04    3.66      71.8  T
   6    -32.0778750 -0.263469E-10  0.139E-04    3.66     141.3  T
   7    -32.0778750 -0.166033E-09  0.333E-05    3.66     588.7  T
   8    -32.0778750 -0.105729E-10  0.125E-05    3.66    1565.4  T
   9    -32.0778750 -0.166978E-11  0.574E-06    3.66    3415.3  T
  10    -32.0778750 -0.291323E-12  0.152E-06    3.66   12913.1  T
     SCC iter.                  ...        0 min,  0.073 sec
     gradient                   ...        0 min,  0.002 sec
 * total energy  :   -31.5567713 Eh     change       -0.5112305E-04 Eh
   gradient norm :     0.0033596 Eh/α   predicted    -0.3354975E-04 ( -34.37%)
   displ. norm   :     0.1460101 α      lambda       -0.6728285E-04
   maximum displ.:     0.0885661 α      in ANC's #1, #10, #9, ...

........................................................................
.............................. CYCLE   25 ..............................
........................................................................

 iter      E             dE          RMSdq      gap      omega  full diag
   1    -32.0775014 -0.320775E+02  0.439E-02    3.65       0.0  T
   2    -32.0775016 -0.185158E-06  0.254E-02    3.65       1.0  T
   3    -32.0775014  0.146369E-06  0.340E-03    3.65       5.8  T
   4    -32.0775015 -0.136062E-06  0.162E-03    3.65      12.1  T
   5    -32.0775016 -0.607066E-07  0.354E-04    3.65      55.5  T
   6    -32.0775016 -0.154792E-09  0.163E-04    3.65     120.2  T
   7    -32.0775016 -0.439329E-10  0.333E-05    3.65     588.2  T
   8    -32.0775016 -0.131877E-10  0.128E-05    3.65    1536.7  T
   9    -32.0775016 -0.603961E-12  0.601E-06    3.65    3264.9  T
  10    -32.0775016 -0.383693E-12  0.163E-06    3.65   12014.1  T
     SCC iter.                  ...        0 min,  0.073 sec
     gradient                   ...        0 min,  0.002 sec
 * total energy  :   -31.5568202 Eh     change       -0.4894899E-04 Eh
   gradient norm :     0.0024343 Eh/α   predicted    -0.3437165E-04 ( -29.78%)
   displ. norm   :     0.1084491 α      lambda       -0.3736428E-04
   maximum displ.:     0.0712646 α      in ANC's #1, #2, #10, ...

........................................................................
.............................. CYCLE   26 ..............................
........................................................................

 iter      E             dE          RMSdq      gap      omega  full diag
   1    -32.0774087 -0.320774E+02  0.329E-02    3.65       0.0  T
   2    -32.0774088 -0.128615E-06  0.191E-02    3.65       1.0  T
   3    -32.0774086  0.188391E-06  0.334E-03    3.65       5.9  T
   4    -32.0774088 -0.209068E-06  0.112E-03    3.65      17.5  T
   5    -32.0774089 -0.235595E-07  0.327E-04    3.65      59.9  T
   6    -32.0774089 -0.238451E-09  0.130E-04    3.65     151.4  T
   7    -32.0774089 -0.141398E-10  0.356E-05    3.65     551.3  T
   8    -32.0774089 -0.106510E-10  0.118E-05    3.65    1659.7  T
   9    -32.0774089 -0.639488E-12  0.512E-06    3.65    3827.5  T
  10    -32.0774089 -0.170530E-12  0.143E-06    3.65   13721.1  T
     SCC iter.                  ...        0 min,  0.073 sec
     gradient                   ...        0 min,  0.002 sec
 * total energy  :   -31.5568468 Eh     change       -0.2659239E-04 Eh
   gradient norm :     0.0011337 Eh/α   predicted    -0.1890227E-04 ( -28.92%)
   displ. norm   :     0.1166053 α      lambda       -0.1997969E-04
   maximum displ.:     0.0794026 α      in ANC's #1, #2, #5, ...

........................................................................
.............................. CYCLE   27 ..............................
........................................................................

 iter      E             dE          RMSdq      gap      omega  full diag
   1    -32.0775231 -0.320775E+02  0.339E-02    3.65       0.0  T
   2    -32.0775232 -0.118974E-06  0.198E-02    3.65       1.0  T
   3    -32.0775230  0.210758E-06  0.329E-03    3.65       6.0  T
   4    -32.0775232 -0.249033E-06  0.851E-04    3.65      23.0  T
   5    -32.0775232 -0.940729E-08  0.348E-04    3.65      56.4  T
   6    -32.0775232 -0.284984E-09  0.119E-04    3.65     165.4  T
   7    -32.0775232 -0.347598E-10  0.430E-05    3.65     455.9  T
   8    -32.0775232 -0.149001E-10  0.146E-05    3.65    1341.0  T
   9    -32.0775232 -0.134293E-11  0.526E-06    3.65    3727.2  T
  10    -32.0775232 -0.156319E-12  0.192E-06    3.65   10221.0  T
     SCC iter.                  ...        0 min,  0.073 sec
     gradient                   ...        0 min,  0.002 sec
 * total energy  :   -31.5568677 Eh     change       -0.2086742E-04 Eh
   gradient norm :     0.0013743 Eh/α   predicted    -0.1005032E-04 ( -51.84%)
   displ. norm   :     0.1079599 α      lambda       -0.1710588E-04
   maximum displ.:     0.0673299 α      in ANC's #1, #5, #3, ...

........................................................................
.............................. CYCLE   28 ..............................
........................................................................

 iter      E             dE          RMSdq      gap      omega  full diag
   1    -32.0776145 -0.320776E+02  0.284E-02    3.65       0.0  T
   2    -32.0776146 -0.730814E-07  0.166E-02    3.65       1.2  T
   3    -32.0776145  0.360215E-07  0.187E-03    3.65      10.5  T
   4    -32.0776146 -0.459681E-07  0.847E-04    3.65      23.2  T
   5    -32.0776146 -0.998354E-08  0.289E-04    3.65      68.0  T
   6    -32.0776146 -0.621078E-09  0.147E-04    3.65     133.2  T
   7    -32.0776146 -0.507256E-10  0.322E-05    3.65     608.2  T
   8    -32.0776146 -0.189360E-10  0.121E-05    3.65    1621.4  T
   9    -32.0776146 -0.100897E-11  0.530E-06    3.65    3701.3  T
  10    -32.0776146 -0.198952E-12  0.212E-06    3.65    9234.5  T
     SCC iter.                  ...        0 min,  0.073 sec
     gradient                   ...        0 min,  0.002 sec
 * total energy  :   -31.5568896 Eh     change       -0.2189643E-04 Eh
   gradient norm :     0.0013235 Eh/α   predicted    -0.8599800E-05 ( -60.73%)
   displ. norm   :     0.1426992 α      lambda       -0.2225799E-04
   maximum displ.:     0.0867927 α      in ANC's #1, #5, #3, ...

........................................................................
.............................. CYCLE   29 ..............................
........................................................................

 iter      E             dE          RMSdq      gap      omega  full diag
   1    -32.0777589 -0.320778E+02  0.381E-02    3.65       0.0  T
   2    -32.0777591 -0.202240E-06  0.218E-02    3.65       1.0  T
   3    -32.0777591  0.163476E-07  0.260E-03    3.65       7.5  T
   4    -32.0777591 -0.178452E-07  0.118E-03    3.65      16.6  T
   5    -32.0777592 -0.309349E-07  0.365E-04    3.65      53.7  T
   6    -32.0777592 -0.144561E-08  0.200E-04    3.65      98.0  T
   7    -32.0777592 -0.984883E-10  0.239E-05    3.65     820.6  T
   8    -32.0777592 -0.264322E-11  0.121E-05    3.65    1627.3  T
   9    -32.0777592 -0.866862E-12  0.584E-06    3.65    3359.1  T
  10    -32.0777592 -0.248690E-12  0.219E-06    3.65    8965.3  T
     SCC iter.                  ...        0 min,  0.073 sec
     gradient                   ...        0 min,  0.002 sec
 * total energy  :   -31.5569157 Eh     change       -0.2612018E-04 Eh
   gradient norm :     0.0009804 Eh/α   predicted    -0.1123111E-04 ( -57.00%)
   displ. norm   :     0.1463243 α      lambda       -0.1616046E-04
   maximum displ.:     0.0951875 α      in ANC's #1, #5, #3, ...

........................................................................
.............................. CYCLE   30 ..............................
........................................................................

 iter      E             dE          RMSdq      gap      omega  full diag
   1    -32.0775855 -0.320776E+02  0.387E-02    3.65       0.0  T
   2    -32.0775857 -0.185813E-06  0.226E-02    3.65       1.0  T
   3    -32.0775857  0.256226E-07  0.251E-03    3.65       7.8  T
   4    -32.0775857 -0.459605E-07  0.102E-03    3.65      19.2  T
   5    -32.0775857 -0.118156E-07  0.447E-04    3.65      43.9  T
   6    -32.0775857 -0.341978E-08  0.207E-04    3.65      94.5  T
   7    -32.0775857 -0.819043E-10  0.389E-05    3.65     504.1  T
   8    -32.0775857 -0.592593E-11  0.129E-05    3.65    1523.4  T
   9    -32.0775857 -0.163425E-12  0.581E-06    3.65    3376.2  T
  10    -32.0775857 -0.277112E-12  0.257E-06    3.65    7636.7  T
     SCC iter.                  ...        0 min,  0.073 sec
     gradient                   ...        0 min,  0.002 sec
 * total energy  :   -31.5569328 Eh     change       -0.1710744E-04 Eh
   gradient norm :     0.0009117 Eh/α   predicted    -0.8157878E-05 ( -52.31%)
   displ. norm   :     0.1159755 α      lambda       -0.1101677E-04
   maximum displ.:     0.0775471 α      in ANC's #1, #5, #3, ...

........................................................................
.............................. CYCLE   31 ..............................
........................................................................

 iter      E             dE          RMSdq      gap      omega  full diag
   1    -32.0779168 -0.320779E+02  0.330E-02    3.65       0.0  T
   2    -32.0779169 -0.162471E-06  0.187E-02    3.65       1.0  T
   3    -32.0779170 -0.698213E-08  0.213E-03    3.65       9.2  T
   4    -32.0779170 -0.544702E-09  0.865E-04    3.65      22.7  T
   5    -32.0779170 -0.148715E-07  0.275E-04    3.65      71.3  T
   6    -32.0779170 -0.170537E-09  0.122E-04    3.65     160.5  T
   7    -32.0779170 -0.105629E-09  0.478E-05    3.65     410.3  T
   8    -32.0779170 -0.149711E-10  0.106E-05    3.65    1846.7  T
   9    -32.0779170 -0.667910E-12  0.474E-06    3.65    4136.3  T
  10    -32.0779170 -0.426326E-12  0.166E-06    3.65   11781.0  T
     SCC iter.                  ...        0 min,  0.074 sec
     gradient                   ...        0 min,  0.002 sec
 * total energy  :   -31.5569430 Eh     change       -0.1015145E-04 Eh
   gradient norm :     0.0007428 Eh/α   predicted    -0.5541673E-05 ( -45.41%)
   displ. norm   :     0.1142681 α      lambda        0.6084673E-05
   maximum displ.:     0.0763195 α      in ANC's #1, #5, #3, ...

........................................................................
.............................. CYCLE   32 ..............................
........................................................................

 iter      E             dE          RMSdq      gap      omega  full diag
   1    -32.0780657 -0.320781E+02  0.323E-02    3.65       0.0  T
   2    -32.0780659 -0.162866E-06  0.183E-02    3.65       1.1  T
   3    -32.0780659 -0.693944E-08  0.214E-03    3.65       9.2  T
   4    -32.0780659  0.662055E-09  0.862E-04    3.65      22.8  T
   5    -32.0780659 -0.161154E-07  0.275E-04    3.65      71.3  T
   6    -32.0780659 -0.138833E-09  0.112E-04    3.65     175.0  T
   7    -32.0780659 -0.863096E-10  0.440E-05    3.65     445.3  T
   8    -32.0780659 -0.155254E-10  0.108E-05    3.65    1822.6  T
   9    -32.0780659 -0.774492E-12  0.466E-06    3.65    4212.3  T
  10    -32.0780659 -0.454747E-12  0.158E-06    3.65   12404.8  T
     SCC iter.                  ...        0 min,  0.074 sec
     gradient                   ...        0 min,  0.002 sec
 * total energy  :   -31.5569409 Eh     change        0.2068615E-05 Eh
   gradient norm :     0.0016418 Eh/α   predicted     0.3058814E-05 (  47.87%)
   displ. norm   :     0.0356868 α      lambda       -0.8423774E-05
   maximum displ.:     0.0186281 α      in ANC's #9, #5, #10, ...

........................................................................
.............................. CYCLE   33 ..............................
........................................................................

 iter      E             dE          RMSdq      gap      omega  full diag
   1    -32.0778839 -0.320779E+02  0.120E-02    3.65       0.0  T
   2    -32.0778841 -0.135559E-06  0.602E-03    3.65       3.3  T
   3    -32.0778841 -0.104853E-08  0.187E-03    3.65      10.5  T
   4    -32.0778841 -0.589623E-09  0.830E-04    3.65      23.6  T
   5    -32.0778841 -0.110679E-07  0.295E-04    3.65      66.5  T
   6    -32.0778841 -0.859600E-09  0.104E-04    3.65     188.6  T
   7    -32.0778841 -0.777334E-11  0.471E-05    3.65     416.1  T
   8    -32.0778841 -0.639488E-11  0.128E-05    3.65    1536.9  T
   9    -32.0778841 -0.104450E-11  0.568E-06    3.65    3452.7  T
  10    -32.0778841 -0.639488E-12  0.137E-06    3.65   14352.3  T
     SCC iter.                  ...        0 min,  0.074 sec
     gradient                   ...        0 min,  0.002 sec
 * total energy  :   -31.5569488 Eh     change       -0.7866497E-05 Eh
   gradient norm :     0.0004416 Eh/α   predicted    -0.4219061E-05 ( -46.37%)
   displ. norm   :     0.0247428 α      lambda       -0.2539247E-05
   maximum displ.:     0.0135448 α      in ANC's #4, #1, #9, ...

........................................................................
.............................. CYCLE   34 ..............................
........................................................................

 iter      E             dE          RMSdq      gap      omega  full diag
   1    -32.0779026 -0.320779E+02  0.963E-03    3.65       0.0  T
   2    -32.0779026 -0.214187E-07  0.526E-03    3.64       3.7  T
   3    -32.0779026  0.101816E-07  0.113E-03    3.64      17.4  T
   4    -32.0779026 -0.939252E-08  0.496E-04    3.64      39.5  T
   5    -32.0779026 -0.483650E-08  0.121E-04    3.64     162.0  T
   6    -32.0779026 -0.489280E-10  0.493E-05    3.64     397.8  T
   7    -32.0779026 -0.330402E-11  0.188E-05    3.64    1045.1  T
   8    -32.0779026 -0.423483E-11  0.630E-06    3.64    3111.9  T
   9    -32.0779026 -0.724754E-12  0.211E-06    3.64    9295.1  T
     SCC iter.                  ...        0 min,  0.074 sec
     gradient                   ...        0 min,  0.002 sec
 * total energy  :   -31.5569513 Eh     change       -0.2551753E-05 Eh
   gradient norm :     0.0003521 Eh/α   predicted    -0.1272878E-05 ( -50.12%)
   displ. norm   :     0.0277706 α      lambda       -0.1952231E-05
   maximum displ.:     0.0157205 α      in ANC's #1, #4, #9, ...

........................................................................
.............................. CYCLE   35 ..............................
........................................................................

 iter      E             dE          RMSdq      gap      omega  full diag
   1    -32.0777587 -0.320778E+02  0.992E-03    3.64       0.0  T
   2    -32.0777587 -0.250836E-07  0.568E-03    3.65       3.5  T
   3    -32.0777587  0.110805E-07  0.109E-03    3.65      18.0  T
   4    -32.0777587 -0.968384E-08  0.513E-04    3.65      38.2  T
   5    -32.0777587 -0.592911E-08  0.106E-04    3.65     184.4  T
   6    -32.0777587 -0.707203E-10  0.457E-05    3.65     429.2  T
   7    -32.0777587 -0.405009E-11  0.185E-05    3.65    1061.9  T
   8    -32.0777587 -0.152056E-11  0.657E-06    3.65    2985.8  T
   9    -32.0777587 -0.603961E-12  0.251E-06    3.65    7827.0  T
     SCC iter.                  ...        0 min,  0.073 sec
     gradient                   ...        0 min,  0.002 sec
 * total energy  :   -31.5569533 Eh     change       -0.1942743E-05 Eh
   gradient norm :     0.0003539 Eh/α   predicted    -0.9774034E-06 ( -49.69%)
   displ. norm   :     0.0284253 α      lambda        0.4196042E-06
   maximum displ.:     0.0161330 α      in ANC's #1, #4, #9, ...

........................................................................
.............................. CYCLE   36 ..............................
........................................................................

 iter      E             dE          RMSdq      gap      omega  full diag
   1    -32.0776003 -0.320776E+02  0.101E-02    3.65       0.0  T
   2    -32.0776003 -0.258040E-07  0.581E-03    3.65       3.4  T
   3    -32.0776003  0.117651E-07  0.111E-03    3.65      17.6  T
   4    -32.0776003 -0.103882E-07  0.522E-04    3.65      37.6  T
   5    -32.0776003 -0.610478E-08  0.108E-04    3.65     182.1  T
   6    -32.0776003 -0.715517E-10  0.465E-05    3.65     421.6  T
   7    -32.0776003 -0.421352E-11  0.187E-05    3.65    1048.8  T
   8    -32.0776003 -0.165556E-11  0.666E-06    3.65    2944.8  T
   9    -32.0776003 -0.618172E-12  0.250E-06    3.65    7834.4  T
     SCC iter.                  ...        0 min,  0.073 sec
     gradient                   ...        0 min,  0.002 sec
 * total energy  :   -31.5569532 Eh     change        0.2576975E-07 Eh
   gradient norm :     0.0007817 Eh/α   predicted     0.2094979E-06 ( 712.96%)
   displ. norm   :     0.0155053 α      lambda       -0.1987496E-05
   maximum displ.:     0.0097908 α      in ANC's #10, #2, #1, ...

........................................................................
.............................. CYCLE   37 ..............................
........................................................................

 iter      E             dE          RMSdq      gap      omega  full diag
   1    -32.0778441 -0.320778E+02  0.706E-03    3.65       0.0  T
   2    -32.0778442 -0.155269E-07  0.402E-03    3.65       4.9  T
   3    -32.0778442 -0.421622E-09  0.586E-04    3.65      33.5  T
   4    -32.0778442 -0.707836E-09  0.201E-04    3.65      97.6  T
   5    -32.0778442 -0.329408E-09  0.112E-04    3.65     175.6  T
   6    -32.0778442 -0.262190E-09  0.339E-05    3.65     578.2  T
   7    -32.0778442 -0.237321E-11  0.158E-05    3.65    1245.1  T
   8    -32.0778442 -0.838440E-12  0.451E-06    3.65    4346.7  T
   9    -32.0778442 -0.120792E-12  0.220E-06    3.65    8919.3  T
     SCC iter.                  ...        0 min,  0.073 sec
     gradient                   ...        0 min,  0.002 sec
 * total energy  :   -31.5569555 Eh     change       -0.2270224E-05 Eh
   gradient norm :     0.0004660 Eh/α   predicted    -0.9944978E-06 ( -56.19%)
   displ. norm   :     0.0341436 α      lambda       -0.2745190E-05
   maximum displ.:     0.0193547 α      in ANC's #10, #1, #2, ...

........................................................................
.............................. CYCLE   38 ..............................
........................................................................

 iter      E             dE          RMSdq      gap      omega  full diag
   1    -32.0779611 -0.320780E+02  0.146E-02    3.65       0.0  T
   2    -32.0779611 -0.267154E-07  0.842E-03    3.65       2.3  T
   3    -32.0779611  0.772799E-08  0.103E-03    3.65      19.1  T
   4    -32.0779611 -0.561353E-08  0.504E-04    3.65      38.9  T
   5    -32.0779612 -0.655503E-08  0.130E-04    3.65     151.0  T
   6    -32.0779612 -0.127500E-09  0.705E-05    3.65     278.2  T
   7    -32.0779612 -0.103384E-10  0.104E-05    3.65    1893.0  T
   8    -32.0779612 -0.150635E-11  0.370E-06    3.65    5300.6  T
   9    -32.0779612 -0.170530E-12  0.178E-06    3.65   11014.9  T
     SCC iter.                  ...        0 min,  0.074 sec
     gradient                   ...        0 min,  0.002 sec
 * total energy  :   -31.5569584 Eh     change       -0.2926452E-05 Eh
   gradient norm :     0.0004487 Eh/α   predicted    -0.1374371E-05 ( -53.04%)
   displ. norm   :     0.0427539 α      lambda       -0.2238687E-05
   maximum displ.:     0.0279576 α      in ANC's #1, #2, #10, ...

........................................................................
.............................. CYCLE   39 ..............................
........................................................................

 iter      E             dE          RMSdq      gap      omega  full diag
   1    -32.0780249 -0.320780E+02  0.183E-02    3.64       0.0  T
   2    -32.0780249 -0.172375E-07  0.107E-02    3.64       1.8  T
   3    -32.0780249 -0.234842E-08  0.643E-04    3.64      30.5  T
   4    -32.0780249  0.488967E-09  0.338E-04    3.64      58.1  T
   5    -32.0780249 -0.274810E-08  0.104E-04    3.64     188.4  T
   6    -32.0780249  0.234479E-12  0.433E-05    3.64     453.2  T
   7    -32.0780249 -0.118234E-10  0.142E-05    3.64    1382.8  T
   8    -32.0780249 -0.108002E-11  0.467E-06    3.64    4197.0  T
   9    -32.0780249 -0.397904E-12  0.135E-06    3.64   14533.2  T
     SCC iter.                  ...        0 min,  0.073 sec
     gradient                   ...        0 min,  0.002 sec
 * total energy  :   -31.5569611 Eh     change       -0.2689131E-05 Eh
   gradient norm :     0.0005068 Eh/α   predicted    -0.1124227E-05 ( -58.19%)
   displ. norm   :     0.0441820 α      lambda       -0.2119758E-05
   maximum displ.:     0.0290984 α      in ANC's #1, #2, #10, ...

........................................................................
.............................. CYCLE   40 ..............................
........................................................................

 iter      E             dE          RMSdq      gap      omega  full diag
   1    -32.0779585 -0.320780E+02  0.188E-02    3.64       0.0  T
   2    -32.0779585 -0.152241E-07  0.110E-02    3.64       1.8  T
   3    -32.0779585 -0.326283E-08  0.507E-04    3.64      38.7  T
   4    -32.0779585 -0.693106E-09  0.236E-04    3.64      82.9  T
   5    -32.0779585 -0.327589E-09  0.100E-04    3.64     195.6  T
   6    -32.0779585 -0.491056E-10  0.434E-05    3.64     451.4  T
   7    -32.0779585 -0.153264E-10  0.150E-05    3.64    1303.6  T
   8    -32.0779585 -0.204636E-11  0.440E-06    3.64    4461.3  T
   9    -32.0779585 -0.184741E-12  0.180E-06    3.64   10871.0  T
     SCC iter.                  ...        0 min,  0.073 sec
     gradient                   ...        0 min,  0.002 sec
 * total energy  :   -31.5569639 Eh     change       -0.2781376E-05 Eh
   gradient norm :     0.0003008 Eh/α   predicted    -0.1064055E-05 ( -61.74%)
   displ. norm   :     0.0483320 α      lambda       -0.2250189E-05
   maximum displ.:     0.0311178 α      in ANC's #2, #1, #5, ...

........................................................................
.............................. CYCLE   41 ..............................
........................................................................

 iter      E             dE          RMSdq      gap      omega  full diag
   1    -32.0778445 -0.320778E+02  0.205E-02    3.64       0.0  T
   2    -32.0778445 -0.178054E-07  0.120E-02    3.64       1.6  T
   3    -32.0778445 -0.304982E-08  0.501E-04    3.64      39.2  T
   4    -32.0778445 -0.125628E-08  0.287E-04    3.64      68.2  T
   5    -32.0778445 -0.548333E-09  0.118E-04    3.64     166.1  T
   6    -32.0778445 -0.493046E-10  0.393E-05    3.64     498.8  T
   7    -32.0778445 -0.110205E-10  0.145E-05    3.64    1354.5  T
   8    -32.0778445 -0.859757E-12  0.441E-06    3.64    4449.7  T
   9    -32.0778445 -0.191847E-12  0.214E-06    3.64    9183.2  T
     SCC iter.                  ...        0 min,  0.073 sec
     gradient                   ...        0 min,  0.002 sec
 * total energy  :   -31.5569668 Eh     change       -0.2947231E-05 Eh
   gradient norm :     0.0002252 Eh/α   predicted    -0.1127471E-05 ( -61.74%)
   displ. norm   :     0.0536093 α      lambda       -0.2387778E-05
   maximum displ.:     0.0360716 α      in ANC's #2, #1, #5, ...

........................................................................
.............................. CYCLE   42 ..............................
........................................................................

 iter      E             dE          RMSdq      gap      omega  full diag
   1    -32.0777406 -0.320777E+02  0.229E-02    3.64       0.0  T
   2    -32.0777406 -0.196245E-07  0.134E-02    3.65       1.5  T
   3    -32.0777406 -0.311999E-08  0.575E-04    3.65      34.1  T
   4    -32.0777406 -0.198581E-08  0.332E-04    3.65      59.0  T
   5    -32.0777406 -0.116280E-08  0.131E-04    3.65     149.8  T
   6    -32.0777406 -0.741238E-10  0.537E-05    3.65     365.0  T
   7    -32.0777406 -0.139693E-10  0.178E-05    3.65    1100.6  T
   8    -32.0777406 -0.164135E-11  0.494E-06    3.65    3969.8  T
   9    -32.0777406 -0.326850E-12  0.247E-06    3.65    7930.8  T
     SCC iter.                  ...        0 min,  0.073 sec
     gradient                   ...        0 min,  0.002 sec
 * total energy  :   -31.5569701 Eh     change       -0.3213194E-05 Eh
   gradient norm :     0.0004151 Eh/α   predicted    -0.1195920E-05 ( -62.78%)
   displ. norm   :     0.0669233 α      lambda       -0.2997139E-05
   maximum displ.:     0.0458217 α      in ANC's #2, #1, #5, ...
 * RMSD in coord.:     0.2346875 α      energy gain  -0.8703867E-03 Eh

generating ANC from model Hessian ...
Using Lindh-Hessian (1995)
 Shifting diagonal of input Hessian by   9.177713078546680E-003
 Lowest  eigenvalues of input Hessian
    0.000000    0.000000    0.000000    0.000000    0.000000    0.000000
    0.010000    0.010145    0.010582    0.011162    0.011734    0.012705
    0.015013    0.016581    0.018448    0.018682    0.024185    0.024505
 Highest eigenvalues
    1.363106    1.554058    1.573100    1.882234    1.987813    2.004037
 

........................................................................
.............................. CYCLE   43 ..............................
........................................................................

 iter      E             dE          RMSdq      gap      omega  full diag
   1    -32.0776734 -0.320777E+02  0.291E-02    3.64       0.0  T
   2    -32.0776734 -0.245225E-07  0.170E-02    3.64       1.2  T
   3    -32.0776734 -0.618634E-08  0.608E-04    3.64      32.3  T
   4    -32.0776734 -0.193873E-08  0.373E-04    3.64      52.5  T
   5    -32.0776734 -0.106162E-08  0.145E-04    3.64     135.5  T
   6    -32.0776734 -0.265388E-10  0.467E-05    3.64     419.8  T
   7    -32.0776734 -0.210889E-10  0.132E-05    3.64    1480.5  T
   8    -32.0776734 -0.653699E-12  0.467E-06    3.64    4203.5  T
   9    -32.0776734 -0.284217E-13  0.185E-06    3.64   10613.4  T
     SCC iter.                  ...        0 min,  0.074 sec
     gradient                   ...        0 min,  0.002 sec
 * total energy  :   -31.5569742 Eh     change       -0.4177305E-05 Eh
   gradient norm :     0.0005519 Eh/α   predicted     0.0000000E+00 (-100.00%)
   displ. norm   :     0.0125219 α      lambda       -0.1445930E-05
   maximum displ.:     0.0087266 α      in ANC's #1, #2, #6, ...

........................................................................
.............................. CYCLE   44 ..............................
........................................................................

 iter      E             dE          RMSdq      gap      omega  full diag
   1    -32.0779394 -0.320779E+02  0.642E-03    3.64       0.0  T
   2    -32.0779394 -0.175497E-07  0.365E-03    3.64       5.4  T
   3    -32.0779394 -0.656314E-09  0.603E-04    3.64      32.6  T
   4    -32.0779394 -0.722075E-09  0.222E-04    3.64      88.4  T
   5    -32.0779394 -0.298705E-09  0.103E-04    3.64     190.8  T
   6    -32.0779394 -0.162856E-09  0.345E-05    3.64     568.0  T
   7    -32.0779394 -0.308376E-11  0.135E-05    3.64    1454.8  T
   8    -32.0779394 -0.112266E-11  0.505E-06    3.64    3879.7  T
   9    -32.0779394 -0.341061E-12  0.196E-06    3.64   10019.9  T
     SCC iter.                  ...        0 min,  0.074 sec
     gradient                   ...        0 min,  0.002 sec
 * total energy  :   -31.5569757 Eh     change       -0.1421758E-05 Eh
   gradient norm :     0.0001933 Eh/α   predicted    -0.7283231E-06 ( -48.77%)
   displ. norm   :     0.0226752 α      lambda       -0.1355804E-05
   maximum displ.:     0.0147335 α      in ANC's #1, #2, #6, ...

........................................................................
.............................. CYCLE   45 ..............................
........................................................................

 iter      E             dE          RMSdq      gap      omega  full diag
   1    -32.0780543 -0.320781E+02  0.919E-03    3.64       0.0  T
   2    -32.0780543 -0.735938E-08  0.532E-03    3.64       3.7  T
   3    -32.0780543 -0.452616E-10  0.471E-04    3.64      41.6  T
   4    -32.0780543 -0.112094E-08  0.162E-04    3.64     121.2  T
   5    -32.0780543 -0.160043E-09  0.600E-05    3.64     326.9  T
   6    -32.0780543 -0.447287E-10  0.312E-05    3.64     628.7  T
   7    -32.0780543 -0.805045E-11  0.120E-05    3.64    1630.7  T
   8    -32.0780543 -0.483169E-12  0.243E-06    3.64    8069.1  T
   9    -32.0780543 -0.355271E-13  0.912E-07    3.64   21501.2  T
     SCC iter.                  ...        0 min,  0.073 sec
     gradient                   ...        0 min,  0.002 sec
 * total energy  :   -31.5569774 Eh     change       -0.1705310E-05 Eh
   gradient norm :     0.0004548 Eh/α   predicted    -0.6857885E-06 ( -59.79%)
   displ. norm   :     0.0469310 α      lambda       -0.2448846E-05
   maximum displ.:     0.0297072 α      in ANC's #1, #2, #6, ...

........................................................................
.............................. CYCLE   46 ..............................
........................................................................

 iter      E             dE          RMSdq      gap      omega  full diag
   1    -32.0780163 -0.320780E+02  0.189E-02    3.64       0.0  T
   2    -32.0780163 -0.131251E-07  0.110E-02    3.64       1.8  T
   3    -32.0780163  0.139600E-08  0.621E-04    3.64      31.6  T
   4    -32.0780164 -0.456047E-08  0.330E-04    3.64      59.4  T
   5    -32.0780164 -0.162548E-08  0.104E-04    3.64     187.7  T
   6    -32.0780164 -0.163070E-10  0.438E-05    3.64     447.8  T
   7    -32.0780164 -0.741096E-11  0.130E-05    3.64    1513.2  T
   8    -32.0780164 -0.133582E-11  0.481E-06    3.64    4075.0  T
   9    -32.0780164 -0.511591E-12  0.193E-06    3.64   10150.7  T
     SCC iter.                  ...        0 min,  0.077 sec
     gradient                   ...        0 min,  0.002 sec
 * total energy  :   -31.5569804 Eh     change       -0.3043198E-05 Eh
   gradient norm :     0.0004987 Eh/α   predicted    -0.1228042E-05 ( -59.65%)
   displ. norm   :     0.0588064 α      lambda       -0.2453387E-05
   maximum displ.:     0.0383582 α      in ANC's #1, #2, #6, ...

........................................................................
.............................. CYCLE   47 ..............................
........................................................................

 iter      E             dE          RMSdq      gap      omega  full diag
   1    -32.0778896 -0.320779E+02  0.245E-02    3.64       0.0  T
   2    -32.0778896 -0.259519E-07  0.143E-02    3.64       1.4  T
   3    -32.0778896 -0.633023E-09  0.786E-04    3.64      25.0  T
   4    -32.0778896 -0.407385E-08  0.457E-04    3.64      42.9  T
   5    -32.0778896 -0.302876E-08  0.157E-04    3.64     125.3  T
   6    -32.0778896 -0.990283E-10  0.658E-05    3.64     298.2  T
   7    -32.0778896 -0.156177E-10  0.184E-05    3.64    1065.7  T
   8    -32.0778896 -0.254374E-11  0.717E-06    3.64    2736.3  T
   9    -32.0778896 -0.959233E-12  0.269E-06    3.64    7291.6  T
     SCC iter.                  ...        0 min,  0.073 sec
     gradient                   ...        0 min,  0.002 sec
 * total energy  :   -31.5569832 Eh     change       -0.2806944E-05 Eh
   gradient norm :     0.0002396 Eh/α   predicted    -0.1231503E-05 ( -56.13%)
   displ. norm   :     0.0427924 α      lambda       -0.1371742E-05
   maximum displ.:     0.0295631 α      in ANC's #1, #2, #10, ...

[...]

           ------------------------------------------------- 
          |                Numerical Hessian                |
           ------------------------------------------------- 
step length          :   0.00500
SCC accuracy         :   0.30000
Hessian scale factor :   1.00000
frozen atoms in %    :   0.00000    0
RMS gradient         :   0.00005
estimated CPU  time      1.17 min
estimated wall time      0.15 min

writing file <hessian>.

 projected vibrational frequencies (cm⁻¹)
eigval :       -0.00    -0.00    -0.00     0.00     0.00     0.00
eigval :       17.83    50.32    65.05   121.11   122.31   164.13
eigval :      199.57   213.88   232.31   295.30   318.47   320.40
eigval :      363.62   401.37   450.35   586.09   657.50   668.73
eigval :      687.39   704.84   735.16   753.36   780.15   875.01
eigval :      899.16   926.85   932.99   969.39   975.69   998.52
eigval :     1003.55  1020.08  1062.81  1082.80  1085.08  1116.94
eigval :     1121.58  1181.71  1198.84  1217.01  1229.75  1244.54
eigval :     1255.30  1278.92  1315.82  1410.35  1411.01  1423.54
eigval :     1442.69  1449.90  1458.00  1497.20  1497.31  1501.63
eigval :     1501.83  1580.06  1589.64  2931.58  2936.92  2944.67
eigval :     2951.24  3013.95  3014.42  3019.49  3019.55  3029.51
eigval :     3030.61  3061.43  3063.60  3070.74  3076.95  3087.62
           -------------------------------------------------
          |                Property Printout                |
           -------------------------------------------------

    * Orbital Energies and Occupations

         #    Occupation            Energy/Eh            Energy/eV
      -------------------------------------------------------------
         1        2.0000           -0.6581217             -17.9084
       ...           ...                  ...                  ...
        18        2.0000           -0.4773492             -12.9893
        19        2.0000           -0.4746470             -12.9158
        20        2.0000           -0.4704229             -12.8009
        21        2.0000           -0.4562981             -12.4165
        22        2.0000           -0.4562208             -12.4144
        23        2.0000           -0.4423042             -12.0357
        24        2.0000           -0.4364978             -11.8777
        25        2.0000           -0.4232565             -11.5174
        26        2.0000           -0.4194592             -11.4141
        27        2.0000           -0.4052618             -11.0277
        28        2.0000           -0.4045285             -11.0078
        29        2.0000           -0.3970073             -10.8031
        30        2.0000           -0.3672882              -9.9944 (HOMO)
        31                         -0.2336364              -6.3576 (LUMO)
        32                         -0.2230322              -6.0690
        33                         -0.1548830              -4.2146
        34                         -0.1507374              -4.1018
        35                         -0.0927972              -2.5251
        36                          0.0045776               0.1246
        37                          0.0548409               1.4923
        38                          0.0923532               2.5131
        39                          0.1109347               3.0187
        40                          0.1352401               3.6801
        41                          0.1375595               3.7432
       ...                                ...                  ...
        64                          0.7795950              21.2139
      -------------------------------------------------------------
                  HL-Gap            0.1336518 Eh            3.6369 eV
             Fermi-level           -0.3004623 Eh           -8.1760 eV

     #   Z          covCN         q      C6AA      α(0)
     1  15 P        3.056    -0.118   165.595    23.117
     2   6 C        3.748    -0.047    21.475     6.610
     3   1 H        0.926     0.039     2.468     2.457
     4   1 H        0.925     0.042     2.419     2.432
     5   6 C        3.821    -0.096    22.317     6.723
     6   1 H        0.925     0.042     2.428     2.437
     7   1 H        0.925     0.036     2.501     2.473
     8   1 H        0.925     0.033     2.546     2.495
     9   6 C        2.916     0.011    27.768     8.641
    10   6 C        2.961    -0.027    28.681     8.784
    11   6 C        3.016    -0.030    28.728     8.792
    12   6 C        2.919    -0.031    28.784     8.798
    13   6 C        2.918    -0.030    28.749     8.793
    14   6 C        2.920    -0.029    28.734     8.790
    15   1 H        0.926     0.032     2.564     2.504
    16   1 H        0.925     0.040     2.451     2.448
    17   1 H        0.926     0.028     2.619     2.531
    18   1 H        0.926     0.030     2.588     2.516
    19   1 H        0.926     0.029     2.603     2.523
    20   6 C        3.748    -0.047    21.474     6.610
    21   1 H        0.925     0.042     2.420     2.433
    22   1 H        0.926     0.039     2.469     2.457
    23   6 C        3.821    -0.096    22.316     6.723
    24   1 H        0.925     0.036     2.501     2.473
    25   1 H        0.925     0.042     2.428     2.437
    26   1 H        0.925     0.033     2.546     2.495

 Mol. C6AA /au·bohr⁶  :       7598.917184
 Mol. C8AA /au·bohr⁸  :     202574.317417
 Mol. α(0) /au        :        139.490063


Wiberg/Mayer (AO) data.
largest (>0.10) Wiberg bond orders for each atom

 ---------------------------------------------------------------------------
     #   Z sym  total        # sym  WBO       # sym  WBO       # sym  WBO
 ---------------------------------------------------------------------------
     1  15 P    3.349 --    20 C    1.024     2 C    1.024     9 C    1.007
     2   6 C    3.993 --     1 P    1.024     5 C    1.017     3 H    0.958
                             4 H    0.951
     3   1 H    0.998 --     2 C    0.958
     4   1 H    0.998 --     2 C    0.951
     5   6 C    3.995 --     2 C    1.017     6 H    0.985     8 H    0.984
                             7 H    0.984
     6   1 H    0.998 --     5 C    0.985
     7   1 H    0.999 --     5 C    0.984
     8   1 H    0.999 --     5 C    0.984
     9   6 C    3.983 --    11 C    1.408    10 C    1.400     1 P    1.007
                            14 C    0.108
    10   6 C    3.993 --    12 C    1.450     9 C    1.400    15 H    0.961
                            13 C    0.111
    11   6 C    3.992 --    13 C    1.443     9 C    1.408    16 H    0.964
                            12 C    0.108
    12   6 C    3.993 --    10 C    1.450    14 C    1.432    17 H    0.970
                            11 C    0.108
    13   6 C    3.992 --    11 C    1.443    14 C    1.441    18 H    0.970
                            10 C    0.111
    14   6 C    3.985 --    13 C    1.441    12 C    1.432    19 H    0.971
                             9 C    0.108
    15   1 H    0.999 --    10 C    0.961
    16   1 H    0.998 --    11 C    0.964
    17   1 H    0.999 --    12 C    0.970
    18   1 H    0.999 --    13 C    0.970
    19   1 H    0.999 --    14 C    0.971
    20   6 C    3.993 --     1 P    1.024    23 C    1.017    22 H    0.958
                            21 H    0.951
    21   1 H    0.998 --    20 C    0.951
    22   1 H    0.998 --    20 C    0.958
    23   6 C    3.995 --    20 C    1.017    25 H    0.985    26 H    0.985
                            24 H    0.984
    24   1 H    0.999 --    23 C    0.984
    25   1 H    0.998 --    23 C    0.985
    26   1 H    0.999 --    23 C    0.985
 ---------------------------------------------------------------------------

Topologies differ in total number of bonds
Writing topology from bond orders to xtbtopo.mol

molecular dipole:
                 x           y           z       tot (Debye)
 q only:       -0.094      -0.141       0.168
   full:       -0.122      -0.387       0.498       1.633
molecular quadrupole (traceless):
                xx          xy          yy          xz          yz          zz
 q only:        0.679      -0.174       1.170       1.121       1.012      -1.850
  q+dip:        4.323      -0.529       0.827       3.922      -0.992      -5.150
   full:        3.405      -1.241       2.181       3.606       1.926      -5.586

           -------------------------------------------------
          |                Geometry Summary                 |
           -------------------------------------------------

      molecular mass/u    :      166.2002322
   center of mass at/Å    :        2.7139107      -0.6676177      -1.8296826
  moments of inertia/u·Å² :        0.4040996E+03   0.6826647E+03   0.8623852E+03
rotational constants/cm⁻¹ :        0.4171652E-01   0.2469387E-01   0.1954768E-01

 * 25 selected distances

     #   Z          #   Z                                           value/Å
     1  15 P        2   6 C                                       1.8664874 (max)
     2   6 C        3   1 H                                       1.0939533
     2   6 C        4   1 H                                       1.0931310
     2   6 C        5   6 C                                       1.5223383
     5   6 C        6   1 H                                       1.0882551
     5   6 C        7   1 H                                       1.0890190
     5   6 C        8   1 H                                       1.0888064
     9   6 C       10   6 C                                       1.3900398
     9   6 C       11   6 C                                       1.3904312
    10   6 C       12   6 C                                       1.3826128
    11   6 C       13   6 C                                       1.3833975
    12   6 C       14   6 C                                       1.3854312
    13   6 C       14   6 C                                       1.3842046
    10   6 C       15   1 H                                       1.0809844
    11   6 C       16   1 H                                       1.0813874
    12   6 C       17   1 H                                       1.0809988
    13   6 C       18   1 H                                       1.0805220
    14   6 C       19   1 H                                       1.0803364 (min)
     1  15 P       20   6 C                                       1.8664649
    20   6 C       21   1 H                                       1.0931147
    20   6 C       22   1 H                                       1.0939641
    20   6 C       23   6 C                                       1.5223491
    23   6 C       24   1 H                                       1.0890202
    23   6 C       25   1 H                                       1.0882688
    23   6 C       26   1 H                                       1.0888040

 * 3 distinct bonds (by element types)

   Z      Z             #   av. dist./Å        max./Å        min./Å
   1 H    6 C          15     1.0873710     1.0939641     1.0803364
   6 C    6 C           8     1.4201006     1.5223491     1.3826128
   6 C   15 P           2     1.8664761     1.8664874     1.8664649

           -------------------------------------------------
          |               Frequency Printout                |
           -------------------------------------------------
 projected vibrational frequencies (cm⁻¹)
eigval :       -0.00    -0.00    -0.00     0.00     0.00     0.00
eigval :       17.83    50.32    65.05   121.11   122.31   164.13
eigval :      199.57   213.88   232.31   295.30   318.47   320.40
eigval :      363.62   401.37   450.35   586.09   657.50   668.73
eigval :      687.39   704.84   735.16   753.36   780.15   875.01
eigval :      899.16   926.85   932.99   969.39   975.69   998.52
eigval :     1003.55  1020.08  1062.81  1082.80  1085.08  1116.94
eigval :     1121.58  1181.71  1198.84  1217.01  1229.75  1244.54
eigval :     1255.30  1278.92  1315.82  1410.35  1411.01  1423.54
eigval :     1442.69  1449.90  1458.00  1497.20  1497.31  1501.63
eigval :     1501.83  1580.06  1589.64  2931.58  2936.92  2944.67
eigval :     2951.24  3013.95  3014.42  3019.49  3019.55  3029.51
eigval :     3030.61  3061.43  3063.60  3070.74  3076.95  3087.62
 reduced masses (amu)
   1: 10.71   2: 14.99   3: 12.66   4: 12.28   5: 15.47   6: 11.47   7:  9.53   8:  9.92
   9:  8.93  10:  7.11  11: 10.85  12:  6.89  13:  5.92  14:  5.27  15:  6.33  16: 10.37
  17: 12.82  18: 14.07  19:  8.83  20: 20.93  21: 10.12  22: 11.18  23: 10.31  24: 12.37
  25: 16.42  26: 16.18  27:  2.77  28:  4.03  29:  4.80  30:  3.30  31:  3.53  32:  4.19
  33:  3.01  34: 11.09  35:  2.22  36:  3.66  37:  2.97  38:  4.29  39:  9.72  40:  7.85
  41:  9.40  42:  7.67  43:  5.36  44:  1.33  45:  1.92  46:  3.62  47:  3.38  48:  4.54
  49:  4.27  50:  3.43  51: 11.95  52:  2.91  53:  2.96  54:  8.59  55:  2.03  56:  2.62
  57:  7.83  58:  1.52  59:  1.52  60:  1.56  61:  1.56  62: 11.45  63: 11.46  64:  1.95
  65:  1.96  66:  1.53  67:  1.50  68:  1.92  69:  1.92  70:  1.81  71:  1.79  72:  1.44
  73:  1.43  74:  1.76  75:  1.79  76:  1.82  77:  1.86  78:  1.91
 IR intensities (km·mol⁻¹)
   1:  0.22   2:  0.11   3:  0.03   4:  0.11   5:  0.07   6:  0.00   7:  0.08   8:  0.06
   9:  0.00  10:  0.11  11:  0.20  12:  0.36  13:  0.22  14:  0.19  15:  0.57  16:  0.15
  17:  0.32  18:  0.06  19:  0.00  20:  6.35  21:  2.24  22:  0.15  23:  0.39  24:  7.46
  25: 36.76  26: 28.60  27: 17.81  28:  0.10  29: 35.96  30:  0.01  31:  0.01  32:  0.02
  33:  0.00  34:  1.04  35:  4.23  36:  3.40  37:  2.65  38:  0.36  39:  6.58  40:  0.23
  41:  0.37  42:  4.93  43:  3.96  44:  0.02  45:  0.60  46:  0.54  47:  3.58  48:  6.29
  49:  7.95  50:  1.69  51:  1.08  52:  4.00  53:  0.04  54:  1.91  55:  0.29  56:  0.37
  57:  0.66  58:  0.25  59:  4.89  60:  0.59  61:  1.70  62:  0.68  63:  0.35  64:  1.43
  65: 46.96  66:  3.87  67: 40.56  68: 51.38  69: 50.57  70: 50.39  71: 11.25  72: 10.49
  73: 21.94  74:  9.94  75:  8.62  76: 12.26  77: 83.19  78: 62.12
 Raman intensities (Ä⁴*amu⁻¹)
   1:  0.00   2:  0.00   3:  0.00   4:  0.00   5:  0.00   6:  0.00   7:  0.00   8:  0.00
   9:  0.00  10:  0.00  11:  0.00  12:  0.00  13:  0.00  14:  0.00  15:  0.00  16:  0.00
  17:  0.00  18:  0.00  19:  0.00  20:  0.00  21:  0.00  22:  0.00  23:  0.00  24:  0.00
  25:  0.00  26:  0.00  27:  0.00  28:  0.00  29:  0.00  30:  0.00  31:  0.00  32:  0.00
  33:  0.00  34:  0.00  35:  0.00  36:  0.00  37:  0.00  38:  0.00  39:  0.00  40:  0.00
  41:  0.00  42:  0.00  43:  0.00  44:  0.00  45:  0.00  46:  0.00  47:  0.00  48:  0.00
  49:  0.00  50:  0.00  51:  0.00  52:  0.00  53:  0.00  54:  0.00  55:  0.00  56:  0.00
  57:  0.00  58:  0.00  59:  0.00  60:  0.00  61:  0.00  62:  0.00  63:  0.00  64:  0.00
  65:  0.00  66:  0.00  67:  0.00  68:  0.00  69:  0.00  70:  0.00  71:  0.00  72:  0.00
  73:  0.00  74:  0.00  75:  0.00  76:  0.00  77:  0.00  78:  0.00
 output can be read by thermo (or use thermo option).
 writing <g98.out> molden fake output.
 recommended (thermochemical) frequency scaling factor: 1.0
           -------------------------------------------------
          |             Thermodynamic Functions             |
           -------------------------------------------------

Refinement of some symmetry elements was terminated before convergence was reached.
Some symmetry elements may remain unidentified.
Molecule has the following symmetry elements: (sigma) 
It seems to be the Cs point group
cs  symmetry found (for desy threshold:  0.10E+00) used in thermo

          ...................................................
          :                      SETUP                      :
          :.................................................:
          :  # frequencies                          72      :
          :  # imaginary freq.                       0      :
          :  linear?                             false      :
          :  only rotor calc.                    false      :
          :  symmetry                               cs      :
          :  rotational number                       1      :
          :  scaling factor                  1.0000000      :
          :  rotor cutoff                   50.0000000 cm⁻¹ :
          :  imag. cutoff                  -20.0000000 cm⁻¹ :
          :.................................................:

    mode    ω/cm⁻¹     T·S(HO)/kcal·mol⁻¹    T·S(FR)/kcal·mol⁻¹   T·S(vib)
   ------------------------------------------------------------------------
       1     17.83    -2.04586 (  1.59%)    -1.36152 ( 98.41%)    -1.37242
       2     50.32    -1.43251 ( 50.64%)    -1.05449 ( 49.36%)    -1.24593
       3     65.05    -1.28142 ( 74.12%)    -0.97850 ( 25.88%)    -1.20303
       4    121.11    -0.91907 ( 97.18%)    -0.79441 (  2.82%)    -0.91555
       5    122.31    -0.91340 ( 97.28%)    -0.79149 (  2.72%)    -0.91008
       6    164.13    -0.74588 ( 99.15%)    -0.70439 (  0.85%)    -0.74552
       7    199.57    -0.63716 ( 99.61%)    -0.64647 (  0.39%)    -0.63720
       8    213.88    -0.59938 ( 99.70%)    -0.62596 (  0.30%)    -0.59946
       9    232.31    -0.55485 ( 99.79%)    -0.60147 (  0.21%)    -0.55495
      10    295.30    -0.43035 ( 99.92%)    -0.53041 (  0.08%)    -0.43044
   ------------------------------------------------------------------------

   temp. (K)  partition function   enthalpy   heat capacity  entropy
                                   cal/mol     cal/K/mol   cal/K/mol   J/K/mol
 298.15  VIB  0.381E+05             6235.711     39.143     38.709
         ROT  0.118E+07              888.752      2.981     30.762
         INT  0.449E+11             7124.463     42.124     69.471
         TR   0.207E+28             1481.254      4.968     41.214
         TOT                        8605.7173    47.0922   110.6846   463.1043

       T/K    H(0)-H(T)+PV         H(T)/Eh          T*S/Eh         G(T)/Eh
   ------------------------------------------------------------------------
    298.15    0.137141E-01    0.232229E+00    0.525898E-01    0.179639E+00
   ------------------------------------------------------------------------

         :::::::::::::::::::::::::::::::::::::::::::::::::::::
         ::                  THERMODYNAMIC                  ::
         :::::::::::::::::::::::::::::::::::::::::::::::::::::
         :: total free energy         -31.377382969140 Eh   ::
         ::.................................................::
         :: total energy              -31.557022295157 Eh   ::
         :: zero point energy           0.218515055228 Eh   ::
         :: G(RRHO) w/o ZPVE           -0.038875729210 Eh   ::
         :: G(RRHO) contrib.            0.179639326017 Eh   ::
         :::::::::::::::::::::::::::::::::::::::::::::::::::::

optimized geometry written to: xtbopt.xyz


           -------------------------------------------------
          | TOTAL ENERGY              -31.557022295157 Eh   |
          | TOTAL ENTHALPY            -31.324793156433 Eh   |
          | TOTAL FREE ENERGY         -31.377382969140 Eh   |
          | GRADIENT NORM               0.000045556662 Eh/α |
          | HOMO-LUMO GAP               3.636850090744 eV   |
           -------------------------------------------------

------------------------------------------------------------------------
 * finished run on 2025/07/14 at 11:35:07.379     
------------------------------------------------------------------------
 total:
 * wall-time:     0 d,  0 h,  0 min,  9.239 sec
 *  cpu-time:     0 d,  0 h,  1 min, 37.201 sec
 * ratio c/w:    10.521 speedup
 SCF:
 * wall-time:     0 d,  0 h,  0 min,  0.097 sec
 *  cpu-time:     0 d,  0 h,  0 min,  1.140 sec
 * ratio c/w:    11.690 speedup
 ANC optimizer:
 * wall-time:     0 d,  0 h,  0 min,  5.749 sec
 *  cpu-time:     0 d,  0 h,  1 min,  8.836 sec
 * ratio c/w:    11.975 speedup
 analytical hessian:
 * wall-time:     0 d,  0 h,  0 min,  3.382 sec
 *  cpu-time:     0 d,  0 h,  0 min, 27.119 sec
 * ratio c/w:     8.018 speedup

