      -----------------------------------------------------------      
     |                   =====================                   |     
     |                           x T B                           |     
     |                   =====================                   |     
     |                         S. Grimme                         |     
     |          Mulliken Center for Theoretical Chemistry        |     
     |                    University of Bonn                     |     
      -----------------------------------------------------------      

   * xtb version 6.7.0 (08769fc) compiled by 'albert@albert-system' on 2024-03-04

   xtb is free software: you can redistribute it and/or modify it under
   the terms of the GNU Lesser General Public License as published by
   the Free Software Foundation, either version 3 of the License, or
   (at your option) any later version.
   
   xtb is distributed in the hope that it will be useful,
   but WITHOUT ANY WARRANTY; without even the implied warranty of
   MERCHANTABILITY or FITNESS FOR A PARTICULAR PURPOSE.  See the
   GNU Lesser General Public License for more details.
   
   Cite this work as:
   * C. Bannwarth, E. Caldeweyher, S. Ehlert, A. Hansen, P. Pracht,
     J. Seibert, S. Spicher, S. Grimme, WIREs Comput. Mol. Sci., 2020, 11,
     e01493. DOI: 10.1002/wcms.1493
   
   for GFN2-xTB:
   * C. Bannwarth, S. Ehlert and S. Grimme., J. Chem. Theory Comput., 2019,
     15, 1652-1671. DOI: 10.1021/acs.jctc.8b01176
   for GFN1-xTB:
   * S. Grimme, C. Bannwarth, P. Shushkov, J. Chem. Theory Comput., 2017,
     13, 1989-2009. DOI: 10.1021/acs.jctc.7b00118
   for GFN0-xTB:
   * P. Pracht, E. Caldeweyher, S. Ehlert, S. Grimme, ChemRxiv, 2019, preprint.
     DOI: 10.26434/chemrxiv.8326202.v1
   for GFN-FF:
   * S. Spicher and S. Grimme, Angew. Chem. Int. Ed., 2020, 59, 15665-15673.
     DOI: 10.1002/anie.202004239
   
   for ALPB and GBSA implicit solvation:
   * S. Ehlert, M. Stahn, S. Spicher, S. Grimme, J. Chem. Theory Comput.,
     2021, 17, 4250-4261. DOI: 10.1021/acs.jctc.1c00471
   
   for ddCOSMO and CPCM-X implicit solvation:
   * M. Stahn, S. Ehlert, S. Grimme, J. Phys. Chem. A,
     2023, XX, XXXX-XXXX. DOI: 10.1021/acs.jpca.3c04382
   
   for DFT-D4:
   * E. Caldeweyher, C. Bannwarth and S. Grimme, J. Chem. Phys., 2017,
     147, 034112. DOI: 10.1063/1.4993215
   * E. Caldeweyher, S. Ehlert, A. Hansen, H. Neugebauer, S. Spicher,
     C. Bannwarth and S. Grimme, J. Chem. Phys., 2019, 150, 154122.
     DOI: 10.1063/1.5090222
   * E. Caldeweyher, J.-M. Mewes, S. Ehlert and S. Grimme, Phys. Chem. Chem. Phys.
     2020, 22, 8499-8512. DOI: 10.1039/D0CP00502A
   
   for sTDA-xTB:
   * S. Grimme and C. Bannwarth, J. Chem. Phys., 2016, 145, 054103.
     DOI: 10.1063/1.4959605
   
   in the mass-spec context:
   * V. Asgeirsson, C. Bauer and S. Grimme, Chem. Sci., 2017, 8, 4879.
     DOI: 10.1039/c7sc00601b
   * J. Koopman and S. Grimme, ACS Omega 2019, 4, 12, 15120-15133.
     DOI: 10.1021/acsomega.9b02011
   
   for metadynamics refer to:
   * S. Grimme, J. Chem. Theory Comput., 2019, 155, 2847-2862
     DOI: 10.1021/acs.jctc.9b00143
   
   for SPH calculations refer to:
   * S. Spicher and S. Grimme, J. Chem. Theory Comput., 2021, 17, 1701-1714
     DOI: 10.1021/acs.jctc.0c01306
   
   for ONIOM refer to:
   * C. Plett, A. Katbashev, S. Ehlert, S. Grimme, M. Bursch,
     Phys. Chem. Chem. Phys., 2023, 25, 17860-17868. DOI: 10.1039/D3CP02178E
   
   for DIPRO refer to:
   * J. Kohn, N. Gildemeister, S. Grimme, D. Fazzi, A. Hansen,
     J. Chem. Phys., 2023, just accepted.
   
   for PTB refer to:
   * S. Grimme, M. Mueller, A. Hansen, J. Chem. Phys., 2023, 158, 124111.
     DOI: 10.1063/5.0137838
   
   with help from (in alphabetical order)
   P. Atkinson, C. Bannwarth, F. Bohle, G. Brandenburg, E. Caldeweyher
   M. Checinski, S. Dohm, S. Ehlert, S. Ehrlich, I. Gerasimov, C. Hölzer
   A. Katbashev, J. Kohn, J. Koopman, C. Lavigne, S. Lehtola, F. März, M. Müller,
   F. Musil, H. Neugebauer, J. Pisarek, C. Plett, P. Pracht, F. Pultar,
   J. Seibert, P. Shushkov, S. Spicher, M. Stahn, M. Steiner, T. Strunk,
   J. Stückrath, T. Rose, and J. Unsleber
   
 * started run on 2025/07/14 at 11:31:38.845     
   ID    Z sym.   atoms
    1   15 P      1
    2    6 C      2, 5, 9-14, 20, 23
    3    1 H      3, 4, 6-8, 15-19, 21, 22, 24-26

           -------------------------------------------------
          |                Calculation Setup                |
           -------------------------------------------------

          program call               : /home/minenky/programs/xtb/xtb-dist/bin/xtb m1_00_PEt2Ph-PBE0-D3-TZ-uniMM_39.xyz --charge 0 --T --ohess extreme --cycles 5000 --acc 0.01 --iterations 5000
          coordinate file            : m1_00_PEt2Ph-PBE0-D3-TZ-uniMM_39.xyz
          omp threads                :                    12

########################################################################
[WARNING] Please study the warnings concerning your input carefully
-1- prog_main_parseArguments: Unknown option '--T' provided
########################################################################

           -------------------------------------------------
          |                 G F N 2 - x T B                 |
           -------------------------------------------------

        Reference                      10.1021/acs.jctc.8b01176
      * Hamiltonian:
        H0-scaling (s, p, d)           1.850000    2.230000    2.230000
        zeta-weighting                 0.500000
      * Dispersion:
        s8                             2.700000
        a1                             0.520000
        a2                             5.000000
        s9                             5.000000
      * Repulsion:
        kExp                           1.500000    1.000000
        rExp                           1.000000
      * Coulomb:
        alpha                          2.000000
        third order                    shell-resolved
        anisotropic                    true
        a3                             3.000000
        a5                             4.000000
        cn-shift                       1.200000
        cn-exp                         4.000000
        max-rad                        5.000000


          ...................................................
          :                      SETUP                      :
          :.................................................:
          :  # basis functions                  65          :
          :  # atomic orbitals                  64          :
          :  # shells                           38          :
          :  # electrons                        60          :
          :  max. iterations                  5000          :
          :  Hamiltonian                  GFN2-xTB          :
          :  restarted?                      false          :
          :  GBSA solvation                  false          :
          :  PC potential                    false          :
          :  electronic temp.          300.0000000     K    :
          :  accuracy                    0.0100000          :
          :  -> integral cutoff          0.4500000E+02      :
          :  -> integral neglect         0.1000000E-09      :
          :  -> SCF convergence          0.1000000E-07 Eh   :
          :  -> wf. convergence          0.1000000E-05 e    :
          :  Broyden damping             0.4000000          :
          :  net charge                          0          :
          :  unpaired electrons                  0          :
          ...................................................

 iter      E             dE          RMSdq      gap      omega  full diag
   1    -32.0110472 -0.320110E+02  0.382E+00    4.04       0.0  T
   2    -32.0560906 -0.450434E-01  0.228E+00    3.50       1.0  T
   3    -32.0558231  0.267459E-03  0.883E-01    3.22       1.0  T
   4    -32.0567146 -0.891424E-03  0.283E-01    3.25       1.0  T
   5    -32.0580854 -0.137085E-02  0.118E-01    3.29       1.0  T
   6    -32.0582700 -0.184624E-03  0.410E-02    3.28       1.0  T
   7    -32.0582852 -0.151626E-04  0.158E-02    3.29       1.2  T
   8    -32.0582860 -0.813018E-06  0.686E-03    3.29       2.9  T
   9    -32.0582865 -0.500319E-06  0.159E-03    3.29      12.3  T
  10    -32.0582866 -0.367615E-07  0.620E-04    3.29      31.6  T
  11    -32.0582866 -0.443315E-09  0.307E-04    3.29      64.0  T
  12    -32.0582866 -0.812086E-09  0.503E-05    3.29     389.5  T
  13    -32.0582866 -0.443379E-11  0.175E-05    3.29    1120.3  T
  14    -32.0582866 -0.133582E-11  0.911E-06    3.29    2152.6  T
  15    -32.0582866 -0.525802E-12  0.255E-06    3.29    7694.7  T

   *** convergence criteria satisfied after 15 iterations ***

         #    Occupation            Energy/Eh            Energy/eV
      -------------------------------------------------------------
         1        2.0000           -0.6596928             -17.9512
       ...           ...                  ...                  ...
        24        2.0000           -0.4391448             -11.9497
        25        2.0000           -0.4235936             -11.5266
        26        2.0000           -0.4203149             -11.4374
        27        2.0000           -0.4086622             -11.1203
        28        2.0000           -0.4017932             -10.9333
        29        2.0000           -0.3983740             -10.8403
        30        2.0000           -0.3556186              -9.6769 (HOMO)
        31                         -0.2348666              -6.3910 (LUMO)
        32                         -0.2235799              -6.0839
        33                         -0.1515948              -4.1251
        34                         -0.1400429              -3.8108
        35                         -0.0903960              -2.4598
       ...                                ...                  ...
        64                          0.7827842              21.3006
      -------------------------------------------------------------
                  HL-Gap            0.1207520 Eh            3.2858 eV
             Fermi-level           -0.2952426 Eh           -8.0340 eV

 SCC (total)                   0 d,  0 h,  0 min,  0.088 sec
 SCC setup                      ...        0 min,  0.000 sec (  0.174%)
 Dispersion                     ...        0 min,  0.000 sec (  0.258%)
 classical contributions        ...        0 min,  0.000 sec (  0.074%)
 integral evaluation            ...        0 min,  0.002 sec (  2.141%)
 iterations                     ...        0 min,  0.084 sec ( 95.156%)
 molecular gradient             ...        0 min,  0.002 sec (  2.084%)
 printout                       ...        0 min,  0.000 sec (  0.094%)

         :::::::::::::::::::::::::::::::::::::::::::::::::::::
         ::                     SUMMARY                     ::
         :::::::::::::::::::::::::::::::::::::::::::::::::::::
         :: total energy             -31.543356812551 Eh    ::
         :: gradient norm              0.043847322557 Eh/a0 ::
         :: HOMO-LUMO gap              3.285829171912 eV    ::
         ::.................................................::
         :: SCC energy               -32.058021047217 Eh    ::
         :: -> isotropic ES            0.004156452399 Eh    ::
         :: -> anisotropic ES          0.005936120255 Eh    ::
         :: -> anisotropic XC          0.022314324253 Eh    ::
         :: -> dispersion             -0.024504677624 Eh    ::
         :: repulsion energy           0.514664234667 Eh    ::
         :: add. restraining           0.000000000000 Eh    ::
         :: total charge              -0.000000000000 e     ::
         :::::::::::::::::::::::::::::::::::::::::::::::::::::

      ----------------------------------------------------------- 
     |                   =====================                   |
     |                        A N C O P T                        |
     |                   =====================                   |
     |               Approximate Normal Coordinate               |
     |                Rational Function Optimizer                |
      ----------------------------------------------------------- 
      ----------------------------------------------------------- 
     |                   =====================                   |
     |                        A N C O P T                        |
     |                   =====================                   |
     |               Approximate Normal Coordinate               |
     |                Rational Function Optimizer                |
      ----------------------------------------------------------- 

          ...................................................
          :                      SETUP                      :
          :.................................................:
          :   optimization level           extreme          :
          :   max. optcycles                  5000          :
          :   ANC micro-cycles                  20          :
          :   degrees of freedom                72          :
          :.................................................:
          :   RF solver                   davidson          :
          :   write xtbopt.log                true          :
          :   linear?                        false          :
          :   energy convergence         0.5000000E-07 Eh   :
          :   grad. convergence          0.5000000E-04 Eh/α :
          :   maxmium RF displ.          1.0000000          :
          :   Hlow (freq-cutoff)         0.1000000E-01      :
          :   Hmax (freq-cutoff)         5.0000000          :
          :   S6 in model hess.         20.0000000          :
          ...................................................

generating ANC from model Hessian ...
Using Lindh-Hessian (1995)
 Shifting diagonal of input Hessian by   1.303036457547923E-002
 Lowest  eigenvalues of input Hessian
    0.010000    0.000000    0.000000    0.000000    0.000000    0.000000
    0.000000    0.013951    0.014292    0.014750    0.015749    0.016482
    0.018088    0.020927    0.022703    0.023445    0.026811    0.028543
 Highest eigenvalues
    1.350627    1.538298    1.565803    1.867422    1.969410    1.989585
 

........................................................................
.............................. CYCLE    1 ..............................
........................................................................

 iter      E             dE          RMSdq      gap      omega  full diag
   1    -32.0582866 -0.320583E+02  0.111E-06    3.29       0.0  T
   2    -32.0582866  0.497380E-13  0.547E-07    3.29   35884.9  T
   3    -32.0582866 -0.284217E-13  0.405E-07    3.29   48411.9  T
     SCC iter.                  ...        0 min,  0.075 sec
     gradient                   ...        0 min,  0.002 sec
 * total energy  :   -31.5433568 Eh     change       -0.6394885E-13 Eh
   gradient norm :     0.0438473 Eh/α   predicted     0.0000000E+00 (-100.00%)
   displ. norm   :     0.5327303 α      lambda       -0.1102278E-01
   maximum displ.:     0.4462594 α      in ANC's #1, #13, #7, ...

........................................................................
.............................. CYCLE    2 ..............................
........................................................................

 iter      E             dE          RMSdq      gap      omega  full diag
   1    -32.0662217 -0.320662E+02  0.382E-01    3.48       0.0  T
   2    -32.0663979 -0.176247E-03  0.194E-01    3.52       1.0  T
   3    -32.0664035 -0.559456E-05  0.670E-02    3.56       1.0  T
   4    -32.0664127 -0.916686E-05  0.327E-02    3.55       1.0  T
   5    -32.0664242 -0.115353E-04  0.858E-03    3.55       2.3  T
   6    -32.0664254 -0.116157E-05  0.320E-03    3.55       6.1  T
   7    -32.0664254 -0.180692E-07  0.115E-03    3.55      17.1  T
   8    -32.0664254 -0.108629E-07  0.416E-04    3.55      47.1  T
   9    -32.0664254 -0.223003E-08  0.143E-04    3.55     137.4  T
  10    -32.0664254 -0.221718E-09  0.630E-05    3.55     311.3  T
  11    -32.0664254 -0.124487E-10  0.286E-05    3.55     685.4  T
  12    -32.0664254 -0.348876E-11  0.792E-06    3.55    2474.7  T
  13    -32.0664254 -0.568434E-13  0.340E-06    3.55    5768.4  T
     SCC iter.                  ...        0 min,  0.077 sec
     gradient                   ...        0 min,  0.002 sec
 * total energy  :   -31.5495948 Eh     change       -0.6237963E-02 Eh
   gradient norm :     0.0159847 Eh/α   predicted    -0.7075569E-02 (  13.43%)
   displ. norm   :     0.2920325 α      lambda       -0.2140310E-02
   maximum displ.:     0.1904836 α      in ANC's #1, #8, #12, ...

........................................................................
.............................. CYCLE    3 ..............................
........................................................................

 iter      E             dE          RMSdq      gap      omega  full diag
   1    -32.0700156 -0.320700E+02  0.143E-01    3.56       0.0  T
   2    -32.0700206 -0.491110E-05  0.869E-02    3.56       1.0  T
   3    -32.0700171  0.343810E-05  0.159E-02    3.56       1.2  T
   4    -32.0700214 -0.423831E-05  0.441E-03    3.56       4.4  T
   5    -32.0700216 -0.280163E-06  0.203E-03    3.56       9.7  T
   6    -32.0700217 -0.367839E-07  0.759E-04    3.56      25.8  T
   7    -32.0700217 -0.121503E-11  0.300E-04    3.56      65.3  T
   8    -32.0700217 -0.791907E-09  0.906E-05    3.56     216.6  T
   9    -32.0700217 -0.978204E-10  0.416E-05    3.56     471.2  T
  10    -32.0700217 -0.845546E-11  0.204E-05    3.56     962.6  T
  11    -32.0700217 -0.301270E-11  0.671E-06    3.56    2924.7  T
  12    -32.0700217 -0.213163E-12  0.271E-06    3.56    7235.3  T
     SCC iter.                  ...        0 min,  0.076 sec
     gradient                   ...        0 min,  0.002 sec
 * total energy  :   -31.5511645 Eh     change       -0.1569758E-02 Eh
   gradient norm :     0.0067056 Eh/α   predicted    -0.1161423E-02 ( -26.01%)
   displ. norm   :     0.3761067 α      lambda       -0.1383969E-02
   maximum displ.:     0.2476083 α      in ANC's #1, #8, #9, ...

........................................................................
.............................. CYCLE    4 ..............................
........................................................................

 iter      E             dE          RMSdq      gap      omega  full diag
   1    -32.0710768 -0.320711E+02  0.132E-01    3.56       0.0  T
   2    -32.0710807 -0.390715E-05  0.794E-02    3.55       1.0  T
   3    -32.0710777  0.302413E-05  0.134E-02    3.56       1.5  T
   4    -32.0710812 -0.347232E-05  0.487E-03    3.55       4.0  T
   5    -32.0710817 -0.466257E-06  0.152E-03    3.55      12.9  T
   6    -32.0710817 -0.195071E-07  0.672E-04    3.55      29.2  T
   7    -32.0710817 -0.621363E-09  0.219E-04    3.55      89.6  T
   8    -32.0710817 -0.379131E-09  0.828E-05    3.55     236.9  T
   9    -32.0710817 -0.366072E-10  0.373E-05    3.55     525.1  T
  10    -32.0710817 -0.615330E-11  0.190E-05    3.55    1032.7  T
  11    -32.0710817 -0.333955E-11  0.569E-06    3.55    3444.4  T
  12    -32.0710817 -0.994760E-13  0.217E-06    3.55    9038.1  T
     SCC iter.                  ...        0 min,  0.077 sec
     gradient                   ...        0 min,  0.002 sec
 * total energy  :   -31.5521117 Eh     change       -0.9472044E-03 Eh
   gradient norm :     0.0062486 Eh/α   predicted    -0.7898736E-03 ( -16.61%)
   displ. norm   :     0.3122097 α      lambda       -0.6160181E-03
   maximum displ.:     0.1920052 α      in ANC's #1, #7, #8, ...

........................................................................
.............................. CYCLE    5 ..............................
........................................................................

 iter      E             dE          RMSdq      gap      omega  full diag
   1    -32.0712339 -0.320712E+02  0.102E-01    3.55       0.0  T
   2    -32.0712357 -0.173663E-05  0.586E-02    3.56       1.0  T
   3    -32.0712339  0.178977E-05  0.103E-02    3.56       1.9  T
   4    -32.0712359 -0.204475E-05  0.367E-03    3.56       5.3  T
   5    -32.0712362 -0.250632E-06  0.940E-04    3.56      20.9  T
   6    -32.0712362 -0.376190E-08  0.527E-04    3.56      37.2  T
   7    -32.0712362 -0.996401E-09  0.134E-04    3.56     145.9  T
   8    -32.0712362 -0.176151E-09  0.624E-05    3.56     314.4  T
   9    -32.0712362 -0.211102E-10  0.302E-05    3.56     648.6  T
  10    -32.0712362 -0.527223E-11  0.114E-05    3.56    1720.6  T
  11    -32.0712362 -0.746070E-12  0.431E-06    3.56    4551.2  T
  12    -32.0712362 -0.106581E-12  0.135E-06    3.56   14534.0  T
     SCC iter.                  ...        0 min,  0.076 sec
     gradient                   ...        0 min,  0.002 sec
 * total energy  :   -31.5525703 Eh     change       -0.4585328E-03 Eh
   gradient norm :     0.0065138 Eh/α   predicted    -0.3380365E-03 ( -26.28%)
   displ. norm   :     0.3567907 α      lambda       -0.5388798E-03
   maximum displ.:     0.2151694 α      in ANC's #1, #7, #6, ...

........................................................................
.............................. CYCLE    6 ..............................
........................................................................

 iter      E             dE          RMSdq      gap      omega  full diag
   1    -32.0710981 -0.320711E+02  0.119E-01    3.55       0.0  T
   2    -32.0711006 -0.247993E-05  0.680E-02    3.55       1.0  T
   3    -32.0710994  0.116627E-05  0.113E-02    3.55       1.7  T
   4    -32.0711010 -0.154851E-05  0.360E-03    3.55       5.4  T
   5    -32.0711011 -0.126324E-06  0.142E-03    3.55      13.8  T
   6    -32.0711011 -0.214153E-07  0.655E-04    3.55      29.9  T
   7    -32.0711011 -0.882750E-09  0.146E-04    3.55     134.6  T
   8    -32.0711011 -0.239773E-09  0.639E-05    3.55     306.8  T
   9    -32.0711011 -0.135572E-10  0.267E-05    3.55     734.7  T
  10    -32.0711011 -0.468248E-11  0.118E-05    3.55    1667.4  T
  11    -32.0711011 -0.150635E-11  0.408E-06    3.55    4802.5  T
  12    -32.0711011  0.710543E-14  0.163E-06    3.55   12008.7  T
     SCC iter.                  ...        0 min,  0.077 sec
     gradient                   ...        0 min,  0.002 sec
 * total energy  :   -31.5529734 Eh     change       -0.4031034E-03 Eh
   gradient norm :     0.0049537 Eh/α   predicted    -0.3037560E-03 ( -24.65%)
   displ. norm   :     0.3725823 α      lambda       -0.4644583E-03
   maximum displ.:     0.2063191 α      in ANC's #1, #7, #6, ...

........................................................................
.............................. CYCLE    7 ..............................
........................................................................

 iter      E             dE          RMSdq      gap      omega  full diag
   1    -32.0710061 -0.320710E+02  0.127E-01    3.55       0.0  T
   2    -32.0710087 -0.256373E-05  0.733E-02    3.56       1.0  T
   3    -32.0710078  0.866903E-06  0.115E-02    3.55       1.7  T
   4    -32.0710091 -0.130293E-05  0.320E-03    3.56       6.1  T
   5    -32.0710092 -0.447463E-07  0.155E-03    3.56      12.7  T
   6    -32.0710092 -0.308536E-07  0.619E-04    3.56      31.7  T
   7    -32.0710092 -0.974275E-09  0.127E-04    3.56     154.8  T
   8    -32.0710092 -0.206533E-09  0.578E-05    3.56     339.4  T
   9    -32.0710092 -0.189146E-10  0.235E-05    3.56     834.2  T
  10    -32.0710092 -0.473221E-11  0.100E-05    3.56    1958.2  T
  11    -32.0710092 -0.682121E-12  0.307E-06    3.56    6379.5  T
  12    -32.0710092  0.142109E-13  0.118E-06    3.56   16668.7  T
     SCC iter.                  ...        0 min,  0.076 sec
     gradient                   ...        0 min,  0.002 sec
 * total energy  :   -31.5533222 Eh     change       -0.3488675E-03 Eh
   gradient norm :     0.0063621 Eh/α   predicted    -0.2644811E-03 ( -24.19%)
   displ. norm   :     0.3781943 α      lambda       -0.4351292E-03
   maximum displ.:     0.1962088 α      in ANC's #1, #6, #4, ...

........................................................................
.............................. CYCLE    8 ..............................
........................................................................

 iter      E             dE          RMSdq      gap      omega  full diag
   1    -32.0713057 -0.320713E+02  0.123E-01    3.55       0.0  T
   2    -32.0713077 -0.195828E-05  0.724E-02    3.56       1.0  T
   3    -32.0713073  0.450910E-06  0.970E-03    3.56       2.0  T
   4    -32.0713081 -0.838866E-06  0.257E-03    3.56       7.6  T
   5    -32.0713081 -0.266705E-08  0.128E-03    3.56      15.3  T
   6    -32.0713081 -0.182802E-07  0.460E-04    3.56      42.7  T
   7    -32.0713081 -0.899050E-09  0.978E-05    3.56     200.5  T
   8    -32.0713081 -0.985665E-10  0.455E-05    3.56     431.1  T
   9    -32.0713081 -0.520117E-11  0.189E-05    3.56    1035.8  T
  10    -32.0713081 -0.380140E-11  0.760E-06    3.56    2581.6  T
  11    -32.0713081 -0.426326E-12  0.252E-06    3.56    7772.2  T
     SCC iter.                  ...        0 min,  0.077 sec
     gradient                   ...        0 min,  0.002 sec
 * total energy  :   -31.5536612 Eh     change       -0.3390030E-03 Eh
   gradient norm :     0.0093663 Eh/α   predicted    -0.2486909E-03 ( -26.64%)
   displ. norm   :     0.4179061 α      lambda       -0.5289657E-03
   maximum displ.:     0.2314047 α      in ANC's #6, #4, #1, ...

........................................................................
.............................. CYCLE    9 ..............................
........................................................................

 iter      E             dE          RMSdq      gap      omega  full diag
   1    -32.0722261 -0.320722E+02  0.127E-01    3.57       0.0  T
   2    -32.0722275 -0.142746E-05  0.756E-02    3.57       1.0  T
   3    -32.0722272  0.290400E-06  0.834E-03    3.57       2.4  T
   4    -32.0722278 -0.629349E-06  0.235E-03    3.57       8.4  T
   5    -32.0722278 -0.643414E-08  0.103E-03    3.57      19.1  T
   6    -32.0722278 -0.125512E-07  0.507E-04    3.57      38.7  T
   7    -32.0722278 -0.180155E-08  0.102E-04    3.57     193.1  T
   8    -32.0722278 -0.634728E-10  0.421E-05    3.57     466.1  T
   9    -32.0722278 -0.144453E-10  0.194E-05    3.57    1010.8  T
  10    -32.0722278 -0.225242E-11  0.801E-06    3.57    2447.4  T
  11    -32.0722278 -0.326850E-12  0.266E-06    3.57    7371.2  T
     SCC iter.                  ...        0 min,  0.076 sec
     gradient                   ...        0 min,  0.002 sec
 * total energy  :   -31.5540839 Eh     change       -0.4226377E-03 Eh
   gradient norm :     0.0105570 Eh/α   predicted    -0.3106756E-03 ( -26.49%)
   displ. norm   :     0.4529623 α      lambda       -0.6506190E-03
   maximum displ.:     0.2569160 α      in ANC's #4, #6, #1, ...

........................................................................
.............................. CYCLE   10 ..............................
........................................................................

 iter      E             dE          RMSdq      gap      omega  full diag
   1    -32.0734380 -0.320734E+02  0.127E-01    3.59       0.0  T
   2    -32.0734401 -0.207049E-05  0.749E-02    3.59       1.0  T
   3    -32.0734399  0.209904E-06  0.914E-03    3.59       2.1  T
   4    -32.0734404 -0.560321E-06  0.281E-03    3.59       7.0  T
   5    -32.0734404 -0.327811E-07  0.917E-04    3.59      21.4  T
   6    -32.0734405 -0.407350E-08  0.550E-04    3.59      35.7  T
   7    -32.0734405 -0.211861E-08  0.130E-04    3.59     151.2  T
   8    -32.0734405 -0.201439E-10  0.538E-05    3.59     364.6  T
   9    -32.0734405 -0.379785E-10  0.213E-05    3.59     922.0  T
  10    -32.0734405 -0.167688E-11  0.885E-06    3.59    2216.5  T
  11    -32.0734405 -0.348166E-12  0.377E-06    3.59    5199.6  T
     SCC iter.                  ...        0 min,  0.081 sec
     gradient                   ...        0 min,  0.002 sec
 * total energy  :   -31.5545957 Eh     change       -0.5117875E-03 Eh
   gradient norm :     0.0087738 Eh/α   predicted    -0.3920643E-03 ( -23.39%)
   displ. norm   :     0.4578113 α      lambda       -0.6035913E-03
   maximum displ.:     0.2597922 α      in ANC's #4, #6, #1, ...

........................................................................
.............................. CYCLE   11 ..............................
........................................................................

 iter      E             dE          RMSdq      gap      omega  full diag
   1    -32.0732072 -0.320732E+02  0.118E-01    3.61       0.0  T
   2    -32.0732108 -0.352922E-05  0.679E-02    3.61       1.0  T
   3    -32.0732105  0.211061E-06  0.123E-02    3.61       1.6  T
   4    -32.0732112 -0.622627E-06  0.376E-03    3.61       5.2  T
   5    -32.0732112 -0.697057E-07  0.118E-03    3.61      16.6  T
   6    -32.0732112 -0.104290E-07  0.573E-04    3.61      34.2  T
   7    -32.0732112 -0.201436E-08  0.164E-04    3.61     119.5  T
   8    -32.0732112 -0.558558E-10  0.653E-05    3.61     300.1  T
   9    -32.0732112 -0.391935E-10  0.227E-05    3.61     864.1  T
  10    -32.0732112 -0.541434E-11  0.110E-05    3.61    1790.8  T
  11    -32.0732112 -0.625278E-12  0.439E-06    3.61    4471.5  T
  12    -32.0732112 -0.923706E-13  0.167E-06    3.61   11751.4  T
     SCC iter.                  ...        0 min,  0.077 sec
     gradient                   ...        0 min,  0.002 sec
 * total energy  :   -31.5550500 Eh     change       -0.4543006E-03 Eh
   gradient norm :     0.0080448 Eh/α   predicted    -0.3650504E-03 ( -19.65%)
   displ. norm   :     0.3197361 α      lambda       -0.5756241E-03
   maximum displ.:     0.1725452 α      in ANC's #4, #6, #1, ...

........................................................................
.............................. CYCLE   12 ..............................
........................................................................

 iter      E             dE          RMSdq      gap      omega  full diag
   1    -32.0800273 -0.320800E+02  0.110E-01    3.63       0.0  T
   2    -32.0800335 -0.623618E-05  0.574E-02    3.62       1.0  T
   3    -32.0800335  0.444034E-07  0.193E-02    3.63       1.0  T
   4    -32.0800342 -0.736515E-06  0.454E-03    3.62       4.3  T
   5    -32.0800342  0.395050E-08  0.212E-03    3.62       9.3  T
   6    -32.0800342 -0.190971E-07  0.822E-04    3.62      23.9  T
   7    -32.0800342 -0.473420E-08  0.242E-04    3.62      80.9  T
   8    -32.0800342 -0.626486E-09  0.817E-05    3.62     240.0  T
   9    -32.0800342 -0.154827E-10  0.368E-05    3.62     533.4  T
  10    -32.0800342 -0.729017E-11  0.171E-05    3.62    1145.4  T
  11    -32.0800342 -0.239453E-11  0.523E-06    3.62    3748.7  T
  12    -32.0800342 -0.206057E-12  0.175E-06    3.62   11231.0  T
     SCC iter.                  ...        0 min,  0.077 sec
     gradient                   ...        0 min,  0.002 sec
 * total energy  :   -31.5551675 Eh     change       -0.1174864E-03 Eh
   gradient norm :     0.0120169 Eh/α   predicted    -0.3172503E-03 ( 170.03%)
   displ. norm   :     0.5984398 α      lambda       -0.9290423E-03
   maximum displ.:     0.3126428 α      in ANC's #1, #4, #6, ...

........................................................................
.............................. CYCLE   13 ..............................
........................................................................

 iter      E             dE          RMSdq      gap      omega  full diag
   1    -32.0697958 -0.320698E+02  0.161E-01    3.64       0.0  T
   2    -32.0698145 -0.186918E-04  0.904E-02    3.64       1.0  T
   3    -32.0698142  0.298387E-06  0.355E-02    3.64       1.0  T
   4    -32.0698170 -0.279266E-05  0.733E-03    3.64       2.7  T
   5    -32.0698170 -0.149620E-07  0.401E-03    3.64       4.9  T
   6    -32.0698170 -0.464361E-07  0.143E-03    3.64      13.8  T
   7    -32.0698170 -0.855658E-08  0.580E-04    3.64      33.8  T
   8    -32.0698170 -0.133805E-08  0.126E-04    3.64     155.4  T
   9    -32.0698170 -0.188578E-10  0.449E-05    3.64     436.6  T
  10    -32.0698170 -0.157456E-10  0.190E-05    3.64    1031.0  T
  11    -32.0698170 -0.160583E-11  0.580E-06    3.64    3382.5  T
  12    -32.0698170 -0.312639E-12  0.237E-06    3.64    8278.4  T
     SCC iter.                  ...        0 min,  0.077 sec
     gradient                   ...        0 min,  0.002 sec
 * total energy  :   -31.5554586 Eh     change       -0.2911863E-03 Eh
   gradient norm :     0.0148175 Eh/α   predicted    -0.6308935E-03 ( 116.66%)
   displ. norm   :     0.2386935 α      lambda       -0.5069273E-03
   maximum displ.:     0.1382187 α      in ANC's #4, #6, #1, ...

........................................................................
.............................. CYCLE   14 ..............................
........................................................................

 iter      E             dE          RMSdq      gap      omega  full diag
   1    -32.0745886 -0.320746E+02  0.781E-02    3.63       0.0  T
   2    -32.0745939 -0.531325E-05  0.431E-02    3.63       1.0  T
   3    -32.0745940 -0.798155E-07  0.158E-02    3.63       1.2  T
   4    -32.0745945 -0.485190E-06  0.373E-03    3.63       5.3  T
   5    -32.0745945 -0.173655E-07  0.172E-03    3.63      11.4  T
   6    -32.0745945 -0.611564E-08  0.503E-04    3.63      39.0  T
   7    -32.0745945 -0.378634E-09  0.188E-04    3.63     104.4  T
   8    -32.0745945 -0.346965E-09  0.582E-05    3.63     337.1  T
   9    -32.0745945 -0.150280E-10  0.279E-05    3.63     702.0  T
  10    -32.0745945 -0.530775E-11  0.882E-06    3.63    2222.8  T
  11    -32.0745945 -0.341061E-12  0.275E-06    3.63    7119.1  T
     SCC iter.                  ...        0 min,  0.076 sec
     gradient                   ...        0 min,  0.002 sec
 * total energy  :   -31.5557094 Eh     change       -0.2507922E-03 Eh
   gradient norm :     0.0051927 Eh/α   predicted    -0.2679054E-03 (   6.82%)
   displ. norm   :     0.2039365 α      lambda       -0.2446039E-03
   maximum displ.:     0.0921344 α      in ANC's #4, #6, #1, ...

........................................................................
.............................. CYCLE   15 ..............................
........................................................................

 iter      E             dE          RMSdq      gap      omega  full diag
   1    -32.0760252 -0.320760E+02  0.460E-02    3.63       0.0  T
   2    -32.0760254 -0.213871E-06  0.270E-02    3.63       1.0  T
   3    -32.0760254 -0.225594E-08  0.291E-03    3.63       6.7  T
   4    -32.0760254 -0.664283E-07  0.114E-03    3.63      17.2  T
   5    -32.0760254 -0.424274E-08  0.512E-04    3.63      38.3  T
   6    -32.0760254 -0.135456E-08  0.194E-04    3.63     101.1  T
   7    -32.0760254 -0.236533E-09  0.539E-05    3.63     363.6  T
   8    -32.0760254 -0.774492E-12  0.232E-05    3.63     844.7  T
   9    -32.0760254 -0.685674E-11  0.632E-06    3.63    3105.4  T
  10    -32.0760254 -0.319744E-12  0.239E-06    3.63    8207.4  T
     SCC iter.                  ...        0 min,  0.081 sec
     gradient                   ...        0 min,  0.002 sec
 * total energy  :   -31.5559091 Eh     change       -0.1996750E-03 Eh
   gradient norm :     0.0037855 Eh/α   predicted    -0.1273943E-03 ( -36.20%)
   displ. norm   :     0.6073779 α      lambda       -0.5702668E-03
   maximum displ.:     0.2664848 α      in ANC's #6, #1, #4, ...

........................................................................
.............................. CYCLE   16 ..............................
........................................................................

 iter      E             dE          RMSdq      gap      omega  full diag
   1    -32.0747272 -0.320747E+02  0.128E-01    3.64       0.0  T
   2    -32.0747343 -0.703425E-05  0.742E-02    3.65       1.0  T
   3    -32.0747333  0.960488E-06  0.242E-02    3.64       1.0  T
   4    -32.0747355 -0.217327E-05  0.386E-03    3.65       5.1  T
   5    -32.0747355 -0.222110E-08  0.213E-03    3.65       9.2  T
   6    -32.0747355 -0.300856E-07  0.898E-04    3.65      21.8  T
   7    -32.0747355 -0.511172E-08  0.268E-04    3.65      73.1  T
   8    -32.0747355 -0.185508E-09  0.952E-05    3.65     206.0  T
   9    -32.0747355 -0.410481E-10  0.316E-05    3.65     620.3  T
  10    -32.0747355 -0.590461E-11  0.142E-05    3.65    1384.8  T
  11    -32.0747355 -0.212452E-11  0.376E-06    3.65    5218.5  T
  12    -32.0747355  0.710543E-14  0.128E-06    3.65   15285.5  T
     SCC iter.                  ...        0 min,  0.077 sec
     gradient                   ...        0 min,  0.002 sec
 * total energy  :   -31.5562234 Eh     change       -0.3143103E-03 Eh
   gradient norm :     0.0089984 Eh/α   predicted    -0.3903264E-03 (  24.19%)
   displ. norm   :     0.1274220 α      lambda       -0.2103193E-03
   maximum displ.:     0.0540884 α      in ANC's #1, #6, #3, ...

........................................................................
.............................. CYCLE   17 ..............................
........................................................................

 iter      E             dE          RMSdq      gap      omega  full diag
   1    -32.0758309 -0.320758E+02  0.378E-02    3.64       0.0  T
   2    -32.0758319 -0.964786E-06  0.197E-02    3.64       1.0  T
   3    -32.0758318  0.456182E-07  0.840E-03    3.64       2.3  T
   4    -32.0758320 -0.184209E-06  0.158E-03    3.64      12.4  T
   5    -32.0758320 -0.620595E-09  0.619E-04    3.64      31.7  T
   6    -32.0758320 -0.489218E-08  0.271E-04    3.64      72.3  T
   7    -32.0758320 -0.551111E-09  0.109E-04    3.64     179.7  T
   8    -32.0758320 -0.183391E-10  0.361E-05    3.64     542.6  T
   9    -32.0758320 -0.887468E-11  0.137E-05    3.64    1435.8  T
  10    -32.0758320 -0.106581E-11  0.480E-06    3.64    4083.8  T
  11    -32.0758320 -0.220268E-12  0.152E-06    3.64   12921.9  T
     SCC iter.                  ...        0 min,  0.076 sec
     gradient                   ...        0 min,  0.002 sec
 * total energy  :   -31.5563771 Eh     change       -0.1537016E-03 Eh
   gradient norm :     0.0054438 Eh/α   predicted    -0.1068715E-03 ( -30.47%)
   displ. norm   :     0.2513838 α      lambda       -0.2861993E-03
   maximum displ.:     0.1176218 α      in ANC's #6, #3, #47, ...

........................................................................
.............................. CYCLE   18 ..............................
........................................................................

 iter      E             dE          RMSdq      gap      omega  full diag
   1    -32.0787599 -0.320788E+02  0.646E-02    3.64       0.0  T
   2    -32.0787607 -0.788497E-06  0.374E-02    3.64       1.0  T
   3    -32.0787606  0.717100E-07  0.489E-03    3.64       4.0  T
   4    -32.0787608 -0.170689E-06  0.190E-03    3.64      10.3  T
   5    -32.0787608 -0.244379E-07  0.879E-04    3.64      22.3  T
   6    -32.0787608 -0.659946E-08  0.342E-04    3.64      57.3  T
   7    -32.0787608 -0.340236E-09  0.111E-04    3.64     176.6  T
   8    -32.0787608 -0.134321E-09  0.330E-05    3.64     594.6  T
   9    -32.0787608 -0.310507E-11  0.161E-05    3.64    1215.5  T
  10    -32.0787608 -0.116529E-11  0.582E-06    3.64    3368.9  T
  11    -32.0787608 -0.270006E-12  0.300E-06    3.64    6536.6  T
     SCC iter.                  ...        0 min,  0.076 sec
     gradient                   ...        0 min,  0.002 sec
 * total energy  :   -31.5565630 Eh     change       -0.1858521E-03 Eh
   gradient norm :     0.0031827 Eh/α   predicted    -0.1521422E-03 ( -18.14%)
   displ. norm   :     0.6316589 α      lambda       -0.3303997E-03
   maximum displ.:     0.3259305 α      in ANC's #6, #3, #1, ...

........................................................................
.............................. CYCLE   19 ..............................
........................................................................

 iter      E             dE          RMSdq      gap      omega  full diag
   1    -32.0712789 -0.320713E+02  0.137E-01    3.65       0.0  T
   2    -32.0712924 -0.134658E-04  0.792E-02    3.65       1.0  T
   3    -32.0712922  0.129837E-06  0.261E-02    3.65       1.0  T
   4    -32.0712938 -0.151970E-05  0.639E-03    3.65       3.1  T
   5    -32.0712938 -0.238396E-08  0.404E-03    3.65       4.9  T
   6    -32.0712939 -0.134032E-06  0.155E-03    3.65      12.6  T
   7    -32.0712939 -0.149501E-07  0.496E-04    3.65      39.5  T
   8    -32.0712939 -0.272578E-09  0.107E-04    3.65     183.2  T
   9    -32.0712939 -0.401243E-10  0.575E-05    3.65     341.3  T
  10    -32.0712939 -0.285425E-10  0.174E-05    3.65    1124.7  T
  11    -32.0712939 -0.167688E-11  0.541E-06    3.65    3625.4  T
  12    -32.0712939 -0.142109E-12  0.175E-06    3.65   11235.5  T
     SCC iter.                  ...        0 min,  0.076 sec
     gradient                   ...        0 min,  0.002 sec
 * total energy  :   -31.5564049 Eh     change        0.1580671E-03 Eh
   gradient norm :     0.0151853 Eh/α   predicted    -0.2311124E-03 (-246.21%)
   displ. norm   :     0.2686547 α      lambda       -0.7996125E-03
   maximum displ.:     0.1326419 α      in ANC's #4, #6, #1, ...

........................................................................
.............................. CYCLE   20 ..............................
........................................................................

 iter      E             dE          RMSdq      gap      omega  full diag
   1    -32.0778667 -0.320779E+02  0.813E-02    3.65       0.0  T
   2    -32.0778771 -0.104372E-04  0.445E-02    3.64       1.0  T
   3    -32.0778775 -0.361260E-06  0.199E-02    3.64       1.0  T
   4    -32.0778780 -0.473499E-06  0.468E-03    3.64       4.2  T
   5    -32.0778780 -0.168781E-07  0.259E-03    3.64       7.6  T
   6    -32.0778780 -0.202127E-07  0.996E-04    3.64      19.7  T
   7    -32.0778780 -0.942174E-08  0.267E-04    3.64      73.4  T
   8    -32.0778780 -0.408576E-09  0.827E-05    3.64     237.2  T
   9    -32.0778780 -0.986233E-11  0.509E-05    3.64     385.5  T
  10    -32.0778780 -0.124203E-10  0.151E-05    3.64    1296.2  T
  11    -32.0778780 -0.145661E-11  0.357E-06    3.64    5499.0  T
  12    -32.0778780 -0.710543E-13  0.147E-06    3.64   13375.8  T
     SCC iter.                  ...        0 min,  0.078 sec
     gradient                   ...        0 min,  0.002 sec
 * total energy  :   -31.5567317 Eh     change       -0.3267902E-03 Eh
   gradient norm :     0.0035372 Eh/α   predicted    -0.4286755E-03 (  31.18%)
   displ. norm   :     0.0912729 α      lambda       -0.7102889E-04
   maximum displ.:     0.0540121 α      in ANC's #6, #3, #47, ...
 * RMSD in coord.:     1.0175347 α      energy gain  -0.1337488E-01 Eh

generating ANC from model Hessian ...
Using Lindh-Hessian (1995)
 Shifting diagonal of input Hessian by   9.174568479610278E-003
 Lowest  eigenvalues of input Hessian
    0.000000    0.000000    0.000000    0.000000    0.000000    0.000000
    0.010000    0.010189    0.010573    0.011118    0.011724    0.012759
    0.015074    0.016616    0.018463    0.018701    0.024233    0.024812
 Highest eigenvalues
    1.363552    1.555395    1.572855    1.883135    1.988336    2.004079
 

........................................................................
.............................. CYCLE   21 ..............................
........................................................................

 iter      E             dE          RMSdq      gap      omega  full diag
   1    -32.0780043 -0.320780E+02  0.270E-02    3.64       0.0  T
   2    -32.0780045 -0.193686E-06  0.165E-02    3.64       1.2  T
   3    -32.0780044  0.943055E-07  0.271E-03    3.64       7.2  T
   4    -32.0780046 -0.116947E-06  0.922E-04    3.64      21.3  T
   5    -32.0780046 -0.103194E-07  0.470E-04    3.64      41.8  T
   6    -32.0780046 -0.152146E-08  0.162E-04    3.64     120.8  T
   7    -32.0780046 -0.195968E-10  0.553E-05    3.64     354.7  T
   8    -32.0780046 -0.184244E-10  0.147E-05    3.64    1330.9  T
   9    -32.0780046 -0.540012E-12  0.842E-06    3.64    2328.1  T
  10    -32.0780046 -0.724754E-12  0.223E-06    3.64    8783.4  T
     SCC iter.                  ...        0 min,  0.076 sec
     gradient                   ...        0 min,  0.002 sec
 * total energy  :   -31.5567809 Eh     change       -0.4923641E-04 Eh
   gradient norm :     0.0029112 Eh/α   predicted     0.0000000E+00 (-100.00%)
   displ. norm   :     0.0473349 α      lambda       -0.4907361E-04
   maximum displ.:     0.0260661 α      in ANC's #3, #4, #6, ...

........................................................................
.............................. CYCLE   22 ..............................
........................................................................

 iter      E             dE          RMSdq      gap      omega  full diag
   1    -32.0777876 -0.320778E+02  0.176E-02    3.65       0.0  T
   2    -32.0777876 -0.822632E-07  0.101E-02    3.65       1.9  T
   3    -32.0777876  0.101408E-07  0.184E-03    3.65      10.7  T
   4    -32.0777876 -0.157073E-07  0.789E-04    3.65      24.8  T
   5    -32.0777877 -0.107233E-07  0.175E-04    3.65     112.2  T
   6    -32.0777877 -0.342673E-09  0.912E-05    3.65     215.1  T
   7    -32.0777877 -0.428386E-10  0.380E-05    3.65     515.8  T
   8    -32.0777877 -0.235900E-11  0.116E-05    3.65    1689.2  T
   9    -32.0777877 -0.909495E-12  0.588E-06    3.65    3333.7  T
  10    -32.0777877 -0.213163E-12  0.171E-06    3.65   11496.6  T
     SCC iter.                  ...        0 min,  0.076 sec
     gradient                   ...        0 min,  0.002 sec
 * total energy  :   -31.5568197 Eh     change       -0.3872075E-04 Eh
   gradient norm :     0.0011657 Eh/α   predicted    -0.2463899E-04 ( -36.37%)
   displ. norm   :     0.1792378 α      lambda       -0.7128002E-04
   maximum displ.:     0.1065372 α      in ANC's #3, #4, #9, ...

........................................................................
.............................. CYCLE   23 ..............................
........................................................................

 iter      E             dE          RMSdq      gap      omega  full diag
   1    -32.0771661 -0.320772E+02  0.438E-02    3.64       0.0  T
   2    -32.0771663 -0.184963E-06  0.256E-02    3.64       1.0  T
   3    -32.0771660  0.291968E-06  0.473E-03    3.64       4.1  T
   4    -32.0771664 -0.368725E-06  0.125E-03    3.64      15.7  T
   5    -32.0771664 -0.505727E-08  0.499E-04    3.64      39.3  T
   6    -32.0771664 -0.900684E-09  0.218E-04    3.64      89.8  T
   7    -32.0771664 -0.232966E-09  0.588E-05    3.64     333.3  T
   8    -32.0771664 -0.220552E-10  0.250E-05    3.64     784.0  T
   9    -32.0771664 -0.422062E-11  0.120E-05    3.64    1633.4  T
  10    -32.0771664 -0.987654E-12  0.352E-06    3.64    5577.5  T
  11    -32.0771664 -0.568434E-13  0.139E-06    3.64   14156.1  T
     SCC iter.                  ...        0 min,  0.077 sec
     gradient                   ...        0 min,  0.002 sec
 * total energy  :   -31.5568800 Eh     change       -0.6034847E-04 Eh
   gradient norm :     0.0027299 Eh/α   predicted    -0.3615001E-04 ( -40.10%)
   displ. norm   :     0.0749734 α      lambda       -0.3229519E-04
   maximum displ.:     0.0482523 α      in ANC's #3, #9, #4, ...

........................................................................
.............................. CYCLE   24 ..............................
........................................................................

 iter      E             dE          RMSdq      gap      omega  full diag
   1    -32.0772629 -0.320773E+02  0.165E-02    3.64       0.0  T
   2    -32.0772629 -0.385307E-07  0.955E-03    3.64       2.1  T
   3    -32.0772629  0.409243E-07  0.168E-03    3.64      11.7  T
   4    -32.0772629 -0.454759E-07  0.731E-04    3.64      26.8  T
   5    -32.0772629 -0.772059E-08  0.203E-04    3.64      96.8  T
   6    -32.0772629 -0.920011E-10  0.868E-05    3.64     225.8  T
   7    -32.0772629 -0.216360E-10  0.245E-05    3.64     800.1  T
   8    -32.0772629 -0.237321E-11  0.772E-06    3.64    2539.7  T
   9    -32.0772629 -0.540012E-12  0.290E-06    3.64    6755.9  T
     SCC iter.                  ...        0 min,  0.076 sec
     gradient                   ...        0 min,  0.002 sec
 * total energy  :   -31.5569085 Eh     change       -0.2845091E-04 Eh
   gradient norm :     0.0022454 Eh/α   predicted    -0.1624140E-04 ( -42.91%)
   displ. norm   :     0.1547239 α      lambda       -0.6221886E-04
   maximum displ.:     0.1011424 α      in ANC's #3, #9, #4, ...

........................................................................
.............................. CYCLE   25 ..............................
........................................................................

 iter      E             dE          RMSdq      gap      omega  full diag
   1    -32.0775562 -0.320776E+02  0.324E-02    3.64       0.0  T
   2    -32.0775564 -0.189330E-06  0.188E-02    3.64       1.0  T
   3    -32.0775562  0.211430E-06  0.376E-03    3.64       5.2  T
   4    -32.0775564 -0.230654E-06  0.151E-03    3.64      13.0  T
   5    -32.0775565 -0.387268E-07  0.370E-04    3.64      53.0  T
   6    -32.0775565 -0.375202E-09  0.182E-04    3.64     107.7  T
   7    -32.0775565 -0.242864E-10  0.561E-05    3.64     349.8  T
   8    -32.0775565 -0.288551E-10  0.154E-05    3.64    1272.9  T
   9    -32.0775565 -0.434852E-11  0.530E-06    3.64    3696.9  T
  10    -32.0775565 -0.291323E-12  0.217E-06    3.64    9026.5  T
     SCC iter.                  ...        0 min,  0.080 sec
     gradient                   ...        0 min,  0.002 sec
 * total energy  :   -31.5569512 Eh     change       -0.4275583E-04 Eh
   gradient norm :     0.0010946 Eh/α   predicted    -0.3185573E-04 ( -25.49%)
   displ. norm   :     0.1314071 α      lambda       -0.1875173E-04
   maximum displ.:     0.0980783 α      in ANC's #3, #9, #6, ...

........................................................................
.............................. CYCLE   26 ..............................
........................................................................

 iter      E             dE          RMSdq      gap      omega  full diag
   1    -32.0776996 -0.320777E+02  0.268E-02    3.64       0.0  T
   2    -32.0776997 -0.117344E-06  0.157E-02    3.64       1.2  T
   3    -32.0776995  0.174922E-06  0.319E-03    3.64       6.1  T
   4    -32.0776997 -0.200398E-06  0.115E-03    3.64      17.1  T
   5    -32.0776997 -0.173212E-07  0.336E-04    3.64      58.4  T
   6    -32.0776997 -0.275314E-09  0.132E-04    3.64     148.7  T
   7    -32.0776997 -0.615827E-10  0.435E-05    3.64     450.7  T
   8    -32.0776997 -0.670752E-11  0.128E-05    3.64    1532.7  T
   9    -32.0776997 -0.145661E-11  0.442E-06    3.64    4441.6  T
  10    -32.0776997 -0.220268E-12  0.179E-06    3.64   10983.5  T
     SCC iter.                  ...        0 min,  0.080 sec
     gradient                   ...        0 min,  0.002 sec
 * total energy  :   -31.5569685 Eh     change       -0.1726598E-04 Eh
   gradient norm :     0.0012916 Eh/α   predicted    -0.9455201E-05 ( -45.24%)
   displ. norm   :     0.1295899 α      lambda        0.1517544E-04
   maximum displ.:     0.0965401 α      in ANC's #3, #9, #6, ...

........................................................................
.............................. CYCLE   27 ..............................
........................................................................

 iter      E             dE          RMSdq      gap      omega  full diag
   1    -32.0775045 -0.320775E+02  0.264E-02    3.64       0.0  T
   2    -32.0775046 -0.112585E-06  0.155E-02    3.64       1.3  T
   3    -32.0775044  0.167192E-06  0.318E-03    3.64       6.2  T
   4    -32.0775046 -0.194881E-06  0.109E-03    3.64      17.9  T
   5    -32.0775046 -0.145602E-07  0.333E-04    3.64      58.8  T
   6    -32.0775046 -0.367542E-09  0.123E-04    3.64     158.9  T
   7    -32.0775046 -0.382911E-10  0.409E-05    3.64     479.3  T
   8    -32.0775046 -0.757439E-11  0.140E-05    3.64    1400.1  T
   9    -32.0775046 -0.169109E-11  0.472E-06    3.64    4151.8  T
  10    -32.0775046 -0.284217E-12  0.155E-06    3.64   12667.7  T
     SCC iter.                  ...        0 min,  0.079 sec
     gradient                   ...        0 min,  0.002 sec
 * total energy  :   -31.5569635 Eh     change        0.5000507E-05 Eh
   gradient norm :     0.0027890 Eh/α   predicted     0.7640980E-05 (  52.80%)
   displ. norm   :     0.0343481 α      lambda       -0.1823804E-04
   maximum displ.:     0.0198698 α      in ANC's #9, #4, #6, ...

........................................................................
.............................. CYCLE   28 ..............................
........................................................................

 iter      E             dE          RMSdq      gap      omega  full diag
   1    -32.0779542 -0.320780E+02  0.103E-02    3.64       0.0  T
   2    -32.0779542 -0.588119E-07  0.576E-03    3.64       3.4  T
   3    -32.0779542  0.335604E-08  0.134E-03    3.64      14.7  T
   4    -32.0779542 -0.830563E-08  0.529E-04    3.64      37.1  T
   5    -32.0779542 -0.244243E-08  0.270E-04    3.64      72.7  T
   6    -32.0779542 -0.951410E-09  0.728E-05    3.64     269.4  T
   7    -32.0779542 -0.120508E-10  0.307E-05    3.64     638.2  T
   8    -32.0779542 -0.142819E-11  0.854E-06    3.64    2296.6  T
   9    -32.0779542 -0.198952E-12  0.368E-06    3.64    5322.1  T
     SCC iter.                  ...        0 min,  0.077 sec
     gradient                   ...        0 min,  0.002 sec
 * total energy  :   -31.5569775 Eh     change       -0.1400683E-04 Eh
   gradient norm :     0.0016903 Eh/α   predicted    -0.9142547E-05 ( -34.73%)
   displ. norm   :     0.0715622 α      lambda       -0.2218799E-04
   maximum displ.:     0.0433603 α      in ANC's #4, #9, #10, ...

........................................................................
.............................. CYCLE   29 ..............................
........................................................................

 iter      E             dE          RMSdq      gap      omega  full diag
   1    -32.0780369 -0.320780E+02  0.231E-02    3.64       0.0  T
   2    -32.0780370 -0.129689E-06  0.131E-02    3.64       1.5  T
   3    -32.0780370  0.389380E-07  0.236E-03    3.63       8.3  T
   4    -32.0780370 -0.420990E-07  0.114E-03    3.64      17.2  T
   5    -32.0780370 -0.228686E-07  0.294E-04    3.64      66.8  T
   6    -32.0780370 -0.553541E-09  0.144E-04    3.64     135.9  T
   7    -32.0780370 -0.572200E-10  0.400E-05    3.64     490.7  T
   8    -32.0780370 -0.114753E-10  0.150E-05    3.64    1305.5  T
   9    -32.0780370 -0.156319E-11  0.544E-06    3.64    3606.4  T
  10    -32.0780370 -0.305533E-12  0.173E-06    3.64   11334.8  T
     SCC iter.                  ...        0 min,  0.077 sec
     gradient                   ...        0 min,  0.002 sec
 * total energy  :   -31.5569928 Eh     change       -0.1527714E-04 Eh
   gradient norm :     0.0009799 Eh/α   predicted    -0.1112127E-04 ( -27.20%)
   displ. norm   :     0.0396618 α      lambda       -0.5104952E-05
   maximum displ.:     0.0328826 α      in ANC's #3, #5, #1, ...

........................................................................
.............................. CYCLE   30 ..............................
........................................................................

 iter      E             dE          RMSdq      gap      omega  full diag
   1    -32.0780725 -0.320781E+02  0.885E-03    3.64       0.0  T
   2    -32.0780725 -0.205640E-07  0.498E-03    3.64       3.9  T
   3    -32.0780725 -0.209290E-09  0.832E-04    3.64      23.6  T
   4    -32.0780725 -0.337764E-09  0.447E-04    3.64      43.9  T
   5    -32.0780725 -0.305246E-08  0.993E-05    3.64     197.5  T
   6    -32.0780725 -0.889386E-10  0.552E-05    3.64     355.4  T
   7    -32.0780725 -0.180123E-10  0.160E-05    3.64    1223.0  T
   8    -32.0780725 -0.660805E-12  0.519E-06    3.64    3777.8  T
   9    -32.0780725 -0.362377E-12  0.168E-06    3.64   11667.3  T
     SCC iter.                  ...        0 min,  0.079 sec
     gradient                   ...        0 min,  0.002 sec
 * total energy  :   -31.5569992 Eh     change       -0.6423810E-05 Eh
   gradient norm :     0.0007822 Eh/α   predicted    -0.2554508E-05 ( -60.23%)
   displ. norm   :     0.0533849 α      lambda       -0.5579010E-05
   maximum displ.:     0.0417339 α      in ANC's #3, #1, #5, ...

........................................................................
.............................. CYCLE   31 ..............................
........................................................................

 iter      E             dE          RMSdq      gap      omega  full diag
   1    -32.0778735 -0.320779E+02  0.121E-02    3.64       0.0  T
   2    -32.0778736 -0.317985E-07  0.717E-03    3.64       2.7  T
   3    -32.0778736 -0.468503E-09  0.897E-04    3.64      21.9  T
   4    -32.0778736 -0.383482E-08  0.309E-04    3.64      63.4  T
   5    -32.0778736  0.256932E-10  0.201E-04    3.64      97.5  T
   6    -32.0778736 -0.403702E-09  0.634E-05    3.64     309.5  T
   7    -32.0778736 -0.280309E-10  0.176E-05    3.64    1112.7  T
   8    -32.0778736 -0.916600E-12  0.716E-06    3.64    2739.2  T
   9    -32.0778736 -0.198952E-12  0.334E-06    3.64    5880.4  T
     SCC iter.                  ...        0 min,  0.076 sec
     gradient                   ...        0 min,  0.002 sec
 * total energy  :   -31.5570055 Eh     change       -0.6330990E-05 Eh
   gradient norm :     0.0002457 Eh/α   predicted    -0.2794263E-05 ( -55.86%)
   displ. norm   :     0.0466578 α      lambda       -0.3004275E-05
   maximum displ.:     0.0364443 α      in ANC's #3, #1, #5, ...

........................................................................
.............................. CYCLE   32 ..............................
........................................................................

 iter      E             dE          RMSdq      gap      omega  full diag
   1    -32.0779122 -0.320779E+02  0.108E-02    3.64       0.0  T
   2    -32.0779122 -0.101280E-07  0.624E-03    3.64       3.1  T
   3    -32.0779122  0.151831E-08  0.604E-04    3.64      32.5  T
   4    -32.0779122 -0.222674E-08  0.332E-04    3.64      59.0  T
   5    -32.0779122 -0.196682E-08  0.906E-05    3.64     216.5  T
   6    -32.0779122 -0.138627E-10  0.367E-05    3.64     534.3  T
   7    -32.0779122 -0.124061E-10  0.950E-06    3.64    2065.3  T
   8    -32.0779122 -0.788702E-12  0.424E-06    3.64    4625.8  T
     SCC iter.                  ...        0 min,  0.076 sec
     gradient                   ...        0 min,  0.002 sec
 * total energy  :   -31.5570093 Eh     change       -0.3747032E-05 Eh
   gradient norm :     0.0002202 Eh/α   predicted    -0.1506605E-05 ( -59.79%)
   displ. norm   :     0.0401716 α      lambda       -0.2049676E-05
   maximum displ.:     0.0316137 α      in ANC's #3, #1, #5, ...

........................................................................
.............................. CYCLE   33 ..............................
........................................................................

 iter      E             dE          RMSdq      gap      omega  full diag
   1    -32.0779325 -0.320779E+02  0.969E-03    3.64       0.0  T
   2    -32.0779325 -0.595846E-08  0.567E-03    3.64       3.5  T
   3    -32.0779325  0.422769E-08  0.584E-04    3.64      33.6  T
   4    -32.0779325 -0.568273E-08  0.246E-04    3.64      79.7  T
   5    -32.0779325 -0.829452E-09  0.701E-05    3.64     279.6  T
   6    -32.0779325 -0.176215E-11  0.269E-05    3.64     729.8  T
   7    -32.0779325 -0.608935E-11  0.894E-06    3.64    2192.9  T
   8    -32.0779325 -0.603961E-12  0.362E-06    3.64    5416.4  T
     SCC iter.                  ...        0 min,  0.075 sec
     gradient                   ...        0 min,  0.002 sec
 * total energy  :   -31.5570120 Eh     change       -0.2755488E-05 Eh
   gradient norm :     0.0002017 Eh/α   predicted    -0.1029311E-05 ( -62.65%)
   displ. norm   :     0.0426817 α      lambda       -0.1998707E-05
   maximum displ.:     0.0326318 α      in ANC's #3, #1, #4, ...

........................................................................
.............................. CYCLE   34 ..............................
........................................................................

 iter      E             dE          RMSdq      gap      omega  full diag
   1    -32.0779560 -0.320780E+02  0.106E-02    3.64       0.0  T
   2    -32.0779560 -0.718056E-08  0.618E-03    3.64       3.2  T
   3    -32.0779560  0.895513E-08  0.738E-04    3.64      26.6  T
   4    -32.0779560 -0.112645E-07  0.218E-04    3.64      90.2  T
   5    -32.0779560 -0.627821E-09  0.818E-05    3.64     239.8  T
   6    -32.0779560 -0.100258E-10  0.376E-05    3.64     521.8  T
   7    -32.0779560 -0.102318E-11  0.987E-06    3.64    1986.9  T
   8    -32.0779560 -0.881073E-12  0.369E-06    3.64    5320.5  T
     SCC iter.                  ...        0 min,  0.076 sec
     gradient                   ...        0 min,  0.002 sec
 * total energy  :   -31.5570146 Eh     change       -0.2629797E-05 Eh
   gradient norm :     0.0001420 Eh/α   predicted    -0.1001080E-05 ( -61.93%)
   displ. norm   :     0.0486388 α      lambda       -0.1877344E-05
   maximum displ.:     0.0362579 α      in ANC's #3, #1, #4, ...

........................................................................
.............................. CYCLE   35 ..............................
........................................................................

 iter      E             dE          RMSdq      gap      omega  full diag
   1    -32.0779543 -0.320780E+02  0.123E-02    3.64       0.0  T
   2    -32.0779543 -0.906011E-08  0.719E-03    3.64       2.7  T
   3    -32.0779543  0.136223E-07  0.902E-04    3.64      21.7  T
   4    -32.0779543 -0.173184E-07  0.264E-04    3.64      74.3  T
   5    -32.0779543 -0.499703E-09  0.913E-05    3.64     214.9  T
   6    -32.0779543 -0.106439E-10  0.367E-05    3.64     534.3  T
   7    -32.0779543 -0.263611E-11  0.114E-05    3.64    1713.0  T
   8    -32.0779543 -0.753175E-12  0.368E-06    3.64    5330.4  T
   9    -32.0779543 -0.923706E-13  0.164E-06    3.64   11988.2  T
     SCC iter.                  ...        0 min,  0.077 sec
     gradient                   ...        0 min,  0.002 sec
 * total energy  :   -31.5570169 Eh     change       -0.2274577E-05 Eh
   gradient norm :     0.0001257 Eh/α   predicted    -0.9438512E-06 ( -58.50%)
   displ. norm   :     0.0427804 α      lambda       -0.1163453E-05
   maximum displ.:     0.0318359 α      in ANC's #3, #1, #4, ...

........................................................................
.............................. CYCLE   36 ..............................
........................................................................

 iter      E             dE          RMSdq      gap      omega  full diag
   1    -32.0779581 -0.320780E+02  0.113E-02    3.64       0.0  T
   2    -32.0779581 -0.997395E-08  0.660E-03    3.64       3.0  T
   3    -32.0779581  0.972215E-08  0.824E-04    3.64      23.8  T
   4    -32.0779581 -0.115926E-07  0.287E-04    3.64      68.4  T
   5    -32.0779581 -0.149344E-08  0.834E-05    3.64     235.1  T
   6    -32.0779581 -0.121858E-10  0.408E-05    3.64     480.8  T
   7    -32.0779581 -0.937916E-12  0.107E-05    3.64    1825.3  T
   8    -32.0779581 -0.731859E-12  0.419E-06    3.64    4679.0  T
   9    -32.0779581 -0.198952E-12  0.196E-06    3.64   10025.9  T
     SCC iter.                  ...        0 min,  0.079 sec
     gradient                   ...        0 min,  0.002 sec
 * total energy  :   -31.5570182 Eh     change       -0.1267137E-05 Eh
   gradient norm :     0.0001283 Eh/α   predicted    -0.5834289E-06 ( -53.96%)
   displ. norm   :     0.0277660 α      lambda       -0.4976733E-06
   maximum displ.:     0.0209376 α      in ANC's #3, #1, #4, ...

........................................................................
.............................. CYCLE   37 ..............................
........................................................................

 iter      E             dE          RMSdq      gap      omega  full diag
   1    -32.0779678 -0.320780E+02  0.731E-03    3.64       0.0  T
   2    -32.0779678 -0.335287E-08  0.427E-03    3.64       4.6  T
   3    -32.0779678  0.402457E-08  0.523E-04    3.64      37.5  T
   4    -32.0779678 -0.516918E-08  0.165E-04    3.64     119.2  T
   5    -32.0779678 -0.245841E-09  0.619E-05    3.64     316.9  T
   6    -32.0779678 -0.109353E-10  0.262E-05    3.64     748.6  T
   7    -32.0779678 -0.980549E-12  0.628E-06    3.64    3120.8  T
   8    -32.0779678 -0.305533E-12  0.213E-06    3.64    9205.4  T
     SCC iter.                  ...        0 min,  0.075 sec
     gradient                   ...        0 min,  0.002 sec
 * total energy  :   -31.5570187 Eh     change       -0.5302720E-06 Eh
   gradient norm :     0.0001193 Eh/α   predicted    -0.2502431E-06 ( -52.81%)
   displ. norm   :     0.0156220 α      lambda       -0.2101499E-06
   maximum displ.:     0.0119225 α      in ANC's #3, #1, #4, ...

........................................................................
.............................. CYCLE   38 ..............................
........................................................................

 iter      E             dE          RMSdq      gap      omega  full diag
   1    -32.0779656 -0.320780E+02  0.442E-03    3.64       0.0  T
   2    -32.0779656 -0.141049E-08  0.258E-03    3.64       7.6  T
   3    -32.0779656  0.776012E-09  0.262E-04    3.64      75.0  T
   4    -32.0779656 -0.972413E-09  0.120E-04    3.64     163.1  T
   5    -32.0779656 -0.261743E-09  0.319E-05    3.64     615.0  T
   6    -32.0779656 -0.135714E-11  0.129E-05    3.64    1525.0  T
   7    -32.0779656 -0.376588E-12  0.396E-06    3.64    4958.6  T
   8    -32.0779656 -0.710543E-13  0.156E-06    3.64   12576.0  T
     SCC iter.                  ...        0 min,  0.075 sec
     gradient                   ...        0 min,  0.002 sec
 * total energy  :   -31.5570190 Eh     change       -0.2512362E-06 Eh
   gradient norm :     0.0000807 Eh/α   predicted    -0.1072809E-06 ( -57.30%)
   displ. norm   :     0.0133620 α      lambda       -0.1618073E-06
   maximum displ.:     0.0096672 α      in ANC's #3, #1, #2, ...

........................................................................
.............................. CYCLE   39 ..............................
........................................................................

 iter      E             dE          RMSdq      gap      omega  full diag
   1    -32.0779703 -0.320780E+02  0.387E-03    3.64       0.0  T
   2    -32.0779703 -0.739284E-09  0.226E-03    3.64       8.7  T
   3    -32.0779703  0.304688E-09  0.185E-04    3.64     105.8  T
   4    -32.0779703 -0.559893E-09  0.688E-05    3.64     284.9  T
   5    -32.0779703 -0.563674E-10  0.281E-05    3.64     698.0  T
   6    -32.0779703 -0.152767E-11  0.112E-05    3.64    1745.7  T
   7    -32.0779703 -0.270006E-12  0.221E-06    3.64    8890.2  T
   8    -32.0779703 -0.213163E-13  0.107E-06    3.64   18274.9  T
     SCC iter.                  ...        0 min,  0.075 sec
     gradient                   ...        0 min,  0.002 sec
 * total energy  :   -31.5570192 Eh     change       -0.2177561E-06 Eh
   gradient norm :     0.0000618 Eh/α   predicted    -0.8362347E-07 ( -61.60%)
   displ. norm   :     0.0169934 α      lambda       -0.1828753E-06
   maximum displ.:     0.0118703 α      in ANC's #3, #1, #2, ...

........................................................................
.............................. CYCLE   40 ..............................
........................................................................

 iter      E             dE          RMSdq      gap      omega  full diag
   1    -32.0779637 -0.320780E+02  0.507E-03    3.64       0.0  T
   2    -32.0779637 -0.106139E-08  0.297E-03    3.64       6.6  T
   3    -32.0779637  0.433332E-09  0.221E-04    3.64      88.7  T
   4    -32.0779637 -0.885500E-09  0.723E-05    3.64     271.3  T
   5    -32.0779637 -0.322373E-10  0.337E-05    3.64     581.2  T
   6    -32.0779637 -0.288480E-11  0.113E-05    3.64    1728.0  T
   7    -32.0779637 -0.589750E-12  0.310E-06    3.64    6327.2  T
   8    -32.0779637 -0.710543E-13  0.122E-06    3.64   16136.2  T
     SCC iter.                  ...        0 min,  0.075 sec
     gradient                   ...        0 min,  0.002 sec
 * total energy  :   -31.5570194 Eh     change       -0.2350602E-06 Eh
   gradient norm :     0.0000404 Eh/α   predicted    -0.9480673E-07 ( -59.67%)
   displ. norm   :     0.0186766 α      lambda       -0.1638535E-06
   maximum displ.:     0.0126884 α      in ANC's #3, #2, #1, ...

........................................................................
.............................. CYCLE   41 ..............................
........................................................................

 iter      E             dE          RMSdq      gap      omega  full diag
   1    -32.0779509 -0.320780E+02  0.557E-03    3.64       0.0  T
   2    -32.0779509 -0.150102E-08  0.327E-03    3.64       6.0  T
   3    -32.0779509  0.140382E-09  0.224E-04    3.64      87.6  T
   4    -32.0779509 -0.608281E-09  0.107E-04    3.64     184.0  T
   5    -32.0779509 -0.150926E-09  0.337E-05    3.64     581.5  T
   6    -32.0779509 -0.273559E-11  0.129E-05    3.64    1517.3  T
   7    -32.0779509 -0.497380E-12  0.410E-06    3.64    4781.3  T
   8    -32.0779509 -0.710543E-13  0.141E-06    3.64   13890.4  T
     SCC iter.                  ...        0 min,  0.075 sec
     gradient                   ...        0 min,  0.002 sec
 * total energy  :   -31.5570196 Eh     change       -0.1929490E-06 Eh
   gradient norm :     0.0000518 Eh/α   predicted    -0.8363319E-07 ( -56.66%)
   displ. norm   :     0.0116749 α      lambda       -0.9241592E-07
   maximum displ.:     0.0073652 α      in ANC's #2, #3, #1, ...

........................................................................
.............................. CYCLE   42 ..............................
........................................................................

 iter      E             dE          RMSdq      gap      omega  full diag
   1    -32.0779555 -0.320780E+02  0.359E-03    3.64       0.0  T
   2    -32.0779555 -0.481478E-09  0.211E-03    3.64       9.3  T
   3    -32.0779555  0.268891E-09  0.163E-04    3.64     120.3  T
   4    -32.0779555 -0.500414E-09  0.453E-05    3.64     433.3  T
   5    -32.0779555 -0.503064E-11  0.217E-05    3.64     905.3  T
   6    -32.0779555 -0.143530E-11  0.823E-06    3.64    2381.5  T
   7    -32.0779555 -0.305533E-12  0.171E-06    3.64   11449.7  T
     SCC iter.                  ...        0 min,  0.075 sec
     gradient                   ...        0 min,  0.002 sec
 * total energy  :   -31.5570197 Eh     change       -0.1232487E-06 Eh
   gradient norm :     0.0000494 Eh/α   predicted    -0.4829178E-07 ( -60.82%)
   displ. norm   :     0.0067530 α      lambda       -0.6659184E-07
   maximum displ.:     0.0052969 α      in ANC's #2, #5, #3, ...
 * RMSD in coord.:     0.1917588 α      energy gain  -0.2880412E-03 Eh

generating ANC from model Hessian ...
Using Lindh-Hessian (1995)
 Shifting diagonal of input Hessian by   9.187372289908969E-003
 Lowest  eigenvalues of input Hessian
    0.000000    0.000000    0.000000    0.000000    0.000000    0.000000
    0.010000    0.010160    0.010569    0.011157    0.011777    0.012731
    0.015013    0.016597    0.018473    0.018689    0.024245    0.025027
 Highest eigenvalues
    1.363241    1.554392    1.573072    1.882532    1.988168    2.004430
 

........................................................................
.............................. CYCLE   43 ..............................
........................................................................

 iter      E             dE          RMSdq      gap      omega  full diag
   1    -32.0779600 -0.320780E+02  0.201E-03    3.64       0.0  T
   2    -32.0779600 -0.156291E-09  0.118E-03    3.64      16.6  T
   3    -32.0779600 -0.434284E-10  0.541E-05    3.64     362.2  T
   4    -32.0779600 -0.212310E-10  0.271E-05    3.64     722.5  T
   5    -32.0779600 -0.473221E-11  0.113E-05    3.64    1732.9  T
   6    -32.0779600 -0.916600E-12  0.434E-06    3.64    4516.1  T
   7    -32.0779600 -0.994760E-13  0.954E-07    3.64   20567.1  T
     SCC iter.                  ...        0 min,  0.075 sec
     gradient                   ...        0 min,  0.002 sec
 * total energy  :   -31.5570198 Eh     change       -0.1059550E-06 Eh
   gradient norm :     0.0000405 Eh/α   predicted     0.0000000E+00 (-100.00%)
   displ. norm   :     0.0000607 α      lambda        0.0000000E+00
   maximum displ.:     0.0000286 α      in ANC's #2, #53, #52, ...

........................................................................
.............................. CYCLE   44 ..............................
........................................................................

 iter      E             dE          RMSdq      gap      omega  full diag
   1    -32.0779613 -0.320780E+02  0.750E-05    3.64       0.0  T
   2    -32.0779613 -0.883915E-11  0.398E-05    3.64     493.3  T
   3    -32.0779613  0.107292E-11  0.164E-05    3.64    1195.4  T
   4    -32.0779613 -0.144951E-11  0.651E-06    3.64    3011.4  T
   5    -32.0779613 -0.689226E-12  0.197E-06    3.64    9948.6  T
     SCC iter.                  ...        0 min,  0.073 sec
     gradient                   ...        0 min,  0.002 sec
 * total energy  :   -31.5570198 Eh     change       -0.1796455E-08 Eh
   gradient norm :     0.0000256 Eh/α   predicted    -0.1203355E-08 ( -33.01%)
   displ. norm   :     0.0000607 α      lambda        0.0000000E+00
   maximum displ.:     0.0000286 α      in ANC's #2, #53, #52, ...

   *** GEOMETRY OPTIMIZATION CONVERGED AFTER 44 ITERATIONS ***

------------------------------------------------------------------------
 total energy gain   :        -0.0136630 Eh       -8.5737 kcal/mol
 total RMSD          :         1.1273240 a0        0.5966 Å
 total power (kW/mol):        -0.8152793 (step)  -10.1903 (real)
------------------------------------------------------------------------

 ANCopt (total)                0 d,  0 h,  0 min,  3.520 sec
 optimizer setup                ...        0 min,  0.000 sec (  0.002%)
 model hessian                  ...        0 min,  0.021 sec (  0.599%)
 ANC generation                 ...        0 min,  0.001 sec (  0.029%)
 coordinate transformation      ...        0 min,  0.000 sec (  0.012%)
 single point calculation       ...        0 min,  3.490 sec ( 99.152%)
 optimization log               ...        0 min,  0.003 sec (  0.080%)
 hessian update                 ...        0 min,  0.001 sec (  0.018%)
 rational function              ...        0 min,  0.003 sec (  0.077%)

================
 final structure:
================
26
 xtb: 6.7.0 (08769fc)
P            1.58034671290650       -0.43824260782487       -2.94667678518601
C            0.48907724834436        1.01070977871516       -2.50719327914780
H            0.22237022452959        1.49892782207704       -3.44919584851137
H           -0.43350728172796        0.66707356576799       -2.03225635993208
C            1.22340866503577        1.99030545864122       -1.60237797136706
H            2.14217017354736        2.33003126884425       -2.07651948546994
H            1.48472519242521        1.51397797452931       -0.65857727737018
H            0.60217161092120        2.85911628161990       -1.39086481810956
C            1.71214662118566       -1.23410845893193       -1.29101041805274
C            0.62987498232184       -1.49195246759139       -0.45770312409477
C            2.98729787265771       -1.59341071103940       -0.86880967622839
C            0.82277811263299       -2.09578634533439        0.77102548381748
C            3.18129197962318       -2.19868356462706        0.35992810480878
C            2.09712968272567       -2.45057077884767        1.18284348721540
H           -0.37218231738537       -1.22283083530106       -0.76102977143366
H            3.82854358527115       -1.39201077275603       -1.51774388521443
H           -0.02533972220811       -2.29131033850984        1.41214182752884
H            4.17716267028128       -2.47360024940280        0.67644633720621
H            2.24258839659723       -2.92222613297267        2.14383072410286
C            0.26406070257899       -1.52968098462017       -3.69508673575114
H           -0.61110739853998       -1.57409465866730       -3.04152504384594
H           -0.03780096219856       -1.06104914373766       -4.63630293963077
C            0.80425761125071       -2.92847350046205       -3.95796340307649
H            1.10112433162548       -3.40301175023867       -3.02379742642025
H            1.67611060227138       -2.88341185075075       -4.60769839501416
H            0.04869670332678       -3.54957999857904       -4.43635332082297
 
 Bond Distances (Angstroems)
 ---------------------------
P1-C2=1.8664         P1-C9=1.8417         P1-C20=1.8665        C2-P1=1.8664         C2-H3=1.0940         C2-H4=1.0931         
C2-C5=1.5223         H3-C2=1.0940         H4-C2=1.0931         C5-C2=1.5223         C5-H6=1.0883         C5-H7=1.0890         
C5-H8=1.0888         H6-C5=1.0883         H7-C5=1.0890         H8-C5=1.0888         C9-P1=1.8417         C9-C10=1.3900        
C9-C11=1.3905        C10-C9=1.3900        C10-C12=1.3826       C10-H15=1.0810       C11-C9=1.3905        C11-C13=1.3834       
C11-H16=1.0814       C12-C10=1.3826       C12-C14=1.3854       C12-H17=1.0810       C13-C11=1.3834       C13-C14=1.3842       
C13-H18=1.0805       C14-C12=1.3854       C14-C13=1.3842       C14-H19=1.0803       H15-C10=1.0810       H16-C11=1.0814       
H17-C12=1.0810       H18-C13=1.0805       H19-C14=1.0803       C20-P1=1.8665        C20-H21=1.0932       C20-H22=1.0939       
C20-C23=1.5223       H21-C20=1.0932       H22-C20=1.0939       C23-C20=1.5223       C23-H24=1.0890       C23-H25=1.0883       
C23-H26=1.0888       H24-C23=1.0890       H25-C23=1.0883       H26-C23=1.0888       
 C  H  Rav=1.0874 sigma=0.0050  Rmin=1.0803  Rmax=1.0940    15
 C  C  Rav=1.4201 sigma=0.0591  Rmin=1.3826  Rmax=1.5223     8
 P  C  Rav=1.8582 sigma=0.0117  Rmin=1.8417  Rmax=1.8665     3
 
 selected bond angles (degree)
 --------------------
C9-P1-C2= 99.53                C20-P1-C2= 97.82               C20-P1-C9= 99.10               H3-C2-P1=106.63                
H4-C2-P1=110.59                H4-C2-H3=107.98                C5-C2-P1=110.94                C5-C2-H3=110.01                
C5-C2-H4=110.56                H6-C5-C2=110.44                H7-C5-C2=110.45                H7-C5-H6=108.15                
H8-C5-C2=110.71                H8-C5-H6=108.50                H8-C5-H7=108.52                C10-C9-P1=124.29               
C11-C9-P1=116.76               C11-C9-C10=118.95              C12-C10-C9=120.34              H15-C10-C9=120.49              
H15-C10-C12=119.17             
 
[...]
         :: total charge               0.000000000000 e     ::
         :::::::::::::::::::::::::::::::::::::::::::::::::::::

           ------------------------------------------------- 
          |                Numerical Hessian                |
           ------------------------------------------------- 
step length          :   0.00500
SCC accuracy         :   0.30000
Hessian scale factor :   1.00000
frozen atoms in %    :   0.00000    0
RMS gradient         :   0.00003
estimated CPU  time      1.13 min
estimated wall time      0.14 min

writing file <hessian>.

 projected vibrational frequencies (cm⁻¹)
eigval :       -0.00    -0.00     0.00     0.00     0.00     0.00
eigval :       18.22    50.25    65.07   121.05   122.37   164.27
eigval :      199.46   213.97   232.48   295.17   317.42   321.39
eigval :      363.62   401.35   450.40   586.12   657.51   668.68
eigval :      687.42   704.78   735.18   753.42   780.18   875.05
eigval :      899.18   926.88   932.99   969.38   975.71   998.42
eigval :     1003.62  1020.05  1062.80  1082.82  1085.10  1116.94
eigval :     1121.48  1181.70  1198.85  1217.02  1229.73  1244.57
eigval :     1255.28  1278.92  1315.81  1410.34  1411.01  1423.60
eigval :     1442.53  1449.93  1458.04  1497.22  1497.34  1501.64
eigval :     1501.84  1579.98  1589.61  2931.52  2936.87  2944.75
eigval :     2951.25  3013.98  3014.44  3019.42  3019.56  3029.43
eigval :     3030.53  3061.37  3063.65  3070.73  3076.93  3087.72
           -------------------------------------------------
          |                Property Printout                |
           -------------------------------------------------

    * Orbital Energies and Occupations

         #    Occupation            Energy/Eh            Energy/eV
      -------------------------------------------------------------
         1        2.0000           -0.6581222             -17.9084
       ...           ...                  ...                  ...
        18        2.0000           -0.4773472             -12.9893
        19        2.0000           -0.4746513             -12.9159
        20        2.0000           -0.4704124             -12.8006
        21        2.0000           -0.4563754             -12.4186
        22        2.0000           -0.4561381             -12.4121
        23        2.0000           -0.4422992             -12.0356
        24        2.0000           -0.4365034             -11.8779
        25        2.0000           -0.4232509             -11.5172
        26        2.0000           -0.4194677             -11.4143
        27        2.0000           -0.4052761             -11.0281
        28        2.0000           -0.4045188             -11.0075
        29        2.0000           -0.3969961             -10.8028
        30        2.0000           -0.3672879              -9.9944 (HOMO)
        31                         -0.2336323              -6.3575 (LUMO)
        32                         -0.2230293              -6.0689
        33                         -0.1548805              -4.2145
        34                         -0.1507463              -4.1020
        35                         -0.0928013              -2.5253
        36                          0.0045205               0.1230
        37                          0.0549567               1.4954
        38                          0.0924180               2.5148
        39                          0.1108436               3.0162
        40                          0.1351791               3.6784
        41                          0.1374981               3.7415
       ...                                ...                  ...
        64                          0.7794735              21.2106
      -------------------------------------------------------------
                  HL-Gap            0.1336556 Eh            3.6370 eV
             Fermi-level           -0.3004601 Eh           -8.1759 eV

     #   Z          covCN         q      C6AA      α(0)
     1  15 P        3.056    -0.118   165.594    23.117
     2   6 C        3.748    -0.047    21.474     6.610
     3   1 H        0.926     0.038     2.469     2.457
     4   1 H        0.925     0.042     2.421     2.433
     5   6 C        3.821    -0.096    22.315     6.723
     6   1 H        0.925     0.042     2.429     2.437
     7   1 H        0.925     0.036     2.501     2.473
     8   1 H        0.925     0.033     2.546     2.495
     9   6 C        2.916     0.011    27.768     8.641
    10   6 C        2.961    -0.027    28.681     8.784
    11   6 C        3.016    -0.030    28.728     8.792
    12   6 C        2.919    -0.031    28.784     8.798
    13   6 C        2.918    -0.030    28.749     8.792
    14   6 C        2.920    -0.029    28.734     8.790
    15   1 H        0.926     0.032     2.563     2.504
    16   1 H        0.925     0.040     2.451     2.448
    17   1 H        0.926     0.028     2.619     2.531
    18   1 H        0.926     0.030     2.588     2.516
    19   1 H        0.926     0.029     2.603     2.523
    20   6 C        3.748    -0.047    21.475     6.610
    21   1 H        0.925     0.042     2.417     2.431
    22   1 H        0.926     0.039     2.468     2.457
    23   6 C        3.821    -0.096    22.318     6.723
    24   1 H        0.925     0.036     2.501     2.473
    25   1 H        0.925     0.042     2.427     2.436
    26   1 H        0.925     0.033     2.546     2.495

 Mol. C6AA /au·bohr⁶  :       7598.901602
 Mol. C8AA /au·bohr⁸  :     202574.157285
 Mol. α(0) /au        :        139.489911


Wiberg/Mayer (AO) data.
largest (>0.10) Wiberg bond orders for each atom

 ---------------------------------------------------------------------------
     #   Z sym  total        # sym  WBO       # sym  WBO       # sym  WBO
 ---------------------------------------------------------------------------
     1  15 P    3.349 --     2 C    1.025    20 C    1.024     9 C    1.007
     2   6 C    3.993 --     1 P    1.025     5 C    1.017     3 H    0.958
                             4 H    0.950
     3   1 H    0.998 --     2 C    0.958
     4   1 H    0.998 --     2 C    0.950
     5   6 C    3.995 --     2 C    1.017     8 H    0.985     6 H    0.984
                             7 H    0.984
     6   1 H    0.998 --     5 C    0.984
     7   1 H    0.999 --     5 C    0.984
     8   1 H    0.999 --     5 C    0.985
     9   6 C    3.983 --    11 C    1.408    10 C    1.400     1 P    1.007
                            14 C    0.108
    10   6 C    3.993 --    12 C    1.450     9 C    1.400    15 H    0.961
                            13 C    0.111
    11   6 C    3.992 --    13 C    1.443     9 C    1.408    16 H    0.964
                            12 C    0.108
    12   6 C    3.993 --    10 C    1.450    14 C    1.432    17 H    0.970
                            11 C    0.108
    13   6 C    3.992 --    11 C    1.443    14 C    1.441    18 H    0.970
                            10 C    0.111
    14   6 C    3.989 --    13 C    1.441    12 C    1.432    19 H    0.971
                             9 C    0.108
    15   1 H    0.999 --    10 C    0.961
    16   1 H    0.998 --    11 C    0.964
    17   1 H    0.999 --    12 C    0.970
    18   1 H    0.999 --    13 C    0.970
    19   1 H    0.999 --    14 C    0.971
    20   6 C    3.996 --     1 P    1.024    23 C    1.017    22 H    0.958
                            21 H    0.951
    21   1 H    0.998 --    20 C    0.951
    22   1 H    0.998 --    20 C    0.958
    23   6 C    3.995 --    20 C    1.017    25 H    0.985    26 H    0.984
                            24 H    0.984
    24   1 H    0.999 --    23 C    0.984
    25   1 H    0.998 --    23 C    0.985
    26   1 H    0.999 --    23 C    0.984
 ---------------------------------------------------------------------------

Topologies differ in total number of bonds
Writing topology from bond orders to xtbtopo.mol

molecular dipole:
                 x           y           z       tot (Debye)
 q only:       -0.229      -0.013       0.064
   full:       -0.566      -0.089       0.290       1.633
molecular quadrupole (traceless):
                xx          xy          yy          xz          yz          zz
 q only:       -0.412      -0.095       0.851       2.555       0.087      -0.439
  q+dip:        1.029      -0.587      -0.476       5.734      -2.697      -0.554
   full:       -1.054      -0.364       2.213       6.636      -0.768      -1.159

           -------------------------------------------------
          |                Geometry Summary                 |
           -------------------------------------------------

      molecular mass/u    :      166.2002322
   center of mass at/Å    :        1.4188250      -1.0709034      -1.5873199
  moments of inertia/u·Å² :        0.4041535E+03   0.6827748E+03   0.8628517E+03
rotational constants/cm⁻¹ :        0.4171097E-01   0.2468989E-01   0.1953711E-01

 * 25 selected distances

     #   Z          #   Z                                           value/Å
     1  15 P        2   6 C                                       1.8664079
     2   6 C        3   1 H                                       1.0940103
     2   6 C        4   1 H                                       1.0930752
     2   6 C        5   6 C                                       1.5223474
     5   6 C        6   1 H                                       1.0882770
     5   6 C        7   1 H                                       1.0890060
     5   6 C        8   1 H                                       1.0888093
     9   6 C       10   6 C                                       1.3900348
     9   6 C       11   6 C                                       1.3904541
    10   6 C       12   6 C                                       1.3826067
    11   6 C       13   6 C                                       1.3833965
    12   6 C       14   6 C                                       1.3854380
    13   6 C       14   6 C                                       1.3842128
    10   6 C       15   1 H                                       1.0809961
    11   6 C       16   1 H                                       1.0813751
    12   6 C       17   1 H                                       1.0810013
    13   6 C       18   1 H                                       1.0805191
    14   6 C       19   1 H                                       1.0803304 (min)
     1  15 P       20   6 C                                       1.8665382 (max)
    20   6 C       21   1 H                                       1.0931765
    20   6 C       22   1 H                                       1.0939033
    20   6 C       23   6 C                                       1.5223461
    23   6 C       24   1 H                                       1.0890283
    23   6 C       25   1 H                                       1.0882619
    23   6 C       26   1 H                                       1.0888079

 * 3 distinct bonds (by element types)

   Z      Z             #   av. dist./Å        max./Å        min./Å
   1 H    6 C          15     1.0873719     1.0940103     1.0803304
   6 C    6 C           8     1.4201046     1.5223474     1.3826067
   6 C   15 P           2     1.8664730     1.8665382     1.8664079

           -------------------------------------------------
          |               Frequency Printout                |
           -------------------------------------------------
 projected vibrational frequencies (cm⁻¹)
eigval :       -0.00    -0.00     0.00     0.00     0.00     0.00
eigval :       18.22    50.25    65.07   121.05   122.37   164.27
eigval :      199.46   213.97   232.48   295.17   317.42   321.39
eigval :      363.62   401.35   450.40   586.12   657.51   668.68
eigval :      687.42   704.78   735.18   753.42   780.18   875.05
eigval :      899.18   926.88   932.99   969.38   975.71   998.42
eigval :     1003.62  1020.05  1062.80  1082.82  1085.10  1116.94
eigval :     1121.48  1181.70  1198.85  1217.02  1229.73  1244.57
eigval :     1255.28  1278.92  1315.81  1410.34  1411.01  1423.60
eigval :     1442.53  1449.93  1458.04  1497.22  1497.34  1501.64
eigval :     1501.84  1579.98  1589.61  2931.52  2936.87  2944.75
eigval :     2951.25  3013.98  3014.44  3019.42  3019.56  3029.43
eigval :     3030.53  3061.37  3063.65  3070.73  3076.93  3087.72
 reduced masses (amu)
   1: 15.15   2: 11.74   3: 12.36   4: 14.34   5: 11.94   6: 12.05   7:  9.54   8:  9.92
   9:  8.93  10:  7.18  11: 10.79  12:  6.87  13:  5.92  14:  5.28  15:  6.34  16: 10.39
  17: 13.01  18: 13.85  19:  8.83  20: 20.93  21: 10.12  22: 11.18  23: 10.31  24: 12.37
  25: 16.41  26: 16.18  27:  2.77  28:  4.03  29:  4.81  30:  3.30  31:  3.54  32:  4.19
  33:  3.01  34: 11.08  35:  2.23  36:  3.65  37:  2.98  38:  4.29  39:  9.72  40:  7.84
  41:  9.40  42:  7.70  43:  5.32  44:  1.33  45:  1.92  46:  3.62  47:  3.38  48:  4.54
  49:  4.27  50:  3.43  51: 11.95  52:  2.91  53:  2.96  54:  8.58  55:  2.03  56:  2.71
  57:  7.74  58:  1.52  59:  1.52  60:  1.56  61:  1.56  62: 11.45  63: 11.46  64:  1.95
  65:  1.96  66:  1.53  67:  1.50  68:  1.92  69:  1.92  70:  1.80  71:  1.81  72:  1.43
  73:  1.42  74:  1.76  75:  1.79  76:  1.82  77:  1.86  78:  1.91
 IR intensities (km·mol⁻¹)
   1:  0.01   2:  0.24   3:  0.04   4:  0.01   5:  0.00   6:  0.23   7:  0.08   8:  0.05
   9:  0.00  10:  0.10  11:  0.28  12:  0.41  13:  0.24  14:  0.09  15:  0.56  16:  0.18
  17:  0.19  18:  0.11  19:  0.00  20:  6.27  21:  2.25  22:  0.14  23:  0.40  24:  7.40
  25: 36.42  26: 28.70  27: 17.82  28:  0.10  29: 35.84  30:  0.01  31:  0.01  32:  0.02
  33:  0.00  34:  0.79  35:  4.15  36:  2.86  37:  2.63  38:  0.41  39:  6.54  40:  0.34
  41:  0.35  42:  4.96  43:  3.44  44:  0.02  45:  0.70  46:  0.53  47:  3.38  48:  6.30
  49:  7.79  50:  1.99  51:  0.99  52:  3.87  53:  0.18  54:  1.94  55:  0.26  56:  0.55
  57:  0.59  58:  0.56  59:  4.56  60:  0.61  61:  1.72  62:  0.68  63:  0.33  64:  1.42
  65: 45.51  66:  3.79  67: 41.89  68: 50.59  69: 48.06  70: 39.26  71: 24.20  72: 10.40
  73: 21.65  74:  9.80  75:  8.46  76: 12.34  77: 83.94  78: 62.72
 Raman intensities (Ä⁴*amu⁻¹)
   1:  0.00   2:  0.00   3:  0.00   4:  0.00   5:  0.00   6:  0.00   7:  0.00   8:  0.00
   9:  0.00  10:  0.00  11:  0.00  12:  0.00  13:  0.00  14:  0.00  15:  0.00  16:  0.00
  17:  0.00  18:  0.00  19:  0.00  20:  0.00  21:  0.00  22:  0.00  23:  0.00  24:  0.00
  25:  0.00  26:  0.00  27:  0.00  28:  0.00  29:  0.00  30:  0.00  31:  0.00  32:  0.00
  33:  0.00  34:  0.00  35:  0.00  36:  0.00  37:  0.00  38:  0.00  39:  0.00  40:  0.00
  41:  0.00  42:  0.00  43:  0.00  44:  0.00  45:  0.00  46:  0.00  47:  0.00  48:  0.00
  49:  0.00  50:  0.00  51:  0.00  52:  0.00  53:  0.00  54:  0.00  55:  0.00  56:  0.00
  57:  0.00  58:  0.00  59:  0.00  60:  0.00  61:  0.00  62:  0.00  63:  0.00  64:  0.00
  65:  0.00  66:  0.00  67:  0.00  68:  0.00  69:  0.00  70:  0.00  71:  0.00  72:  0.00
  73:  0.00  74:  0.00  75:  0.00  76:  0.00  77:  0.00  78:  0.00
 output can be read by thermo (or use thermo option).
 writing <g98.out> molden fake output.
 recommended (thermochemical) frequency scaling factor: 1.0
           -------------------------------------------------
          |             Thermodynamic Functions             |
           -------------------------------------------------

Molecule has no symmetry elements
It seems to be the C1 point group
c1  symmetry found (for desy threshold:  0.10E+00) used in thermo

          ...................................................
          :                      SETUP                      :
          :.................................................:
          :  # frequencies                          72      :
          :  # imaginary freq.                       0      :
          :  linear?                             false      :
          :  only rotor calc.                    false      :
          :  symmetry                               c1      :
          :  rotational number                       1      :
          :  scaling factor                  1.0000000      :
          :  rotor cutoff                   50.0000000 cm⁻¹ :
          :  imag. cutoff                  -20.0000000 cm⁻¹ :
          :.................................................:

    mode    ω/cm⁻¹     T·S(HO)/kcal·mol⁻¹    T·S(FR)/kcal·mol⁻¹   T·S(vib)
   ------------------------------------------------------------------------
       1     18.22    -2.03304 (  1.73%)    -1.35512 ( 98.27%)    -1.36688
       2     50.25    -1.43339 ( 50.49%)    -1.05494 ( 49.51%)    -1.24603
       3     65.07    -1.28119 ( 74.15%)    -0.97838 ( 25.85%)    -1.20292
       4    121.05    -0.91936 ( 97.17%)    -0.79456 (  2.83%)    -0.91583
       5    122.37    -0.91310 ( 97.29%)    -0.79134 (  2.71%)    -0.90980
       6    164.27    -0.74539 ( 99.15%)    -0.70413 (  0.85%)    -0.74504
       7    199.46    -0.63748 ( 99.61%)    -0.64664 (  0.39%)    -0.63751
       8    213.97    -0.59914 ( 99.70%)    -0.62583 (  0.30%)    -0.59922
       9    232.48    -0.55446 ( 99.79%)    -0.60125 (  0.21%)    -0.55456
      10    295.17    -0.43056 ( 99.92%)    -0.53053 (  0.08%)    -0.43065
   ------------------------------------------------------------------------

   temp. (K)  partition function   enthalpy   heat capacity  entropy
                                   cal/mol     cal/K/mol   cal/K/mol   J/K/mol
 298.15  VIB  0.374E+05             6235.068     39.143     38.689
         ROT  0.118E+07              888.752      2.981     30.763
         INT  0.441E+11             7123.821     42.124     69.451
         TR   0.207E+28             1481.254      4.968     41.214
         TOT                        8605.0747    47.0922   110.6650   463.0224

       T/K    H(0)-H(T)+PV         H(T)/Eh          T*S/Eh         G(T)/Eh
   ------------------------------------------------------------------------
    298.15    0.137131E-01    0.232229E+00    0.525805E-01    0.179648E+00
   ------------------------------------------------------------------------

         :::::::::::::::::::::::::::::::::::::::::::::::::::::
         ::                  THERMODYNAMIC                  ::
         :::::::::::::::::::::::::::::::::::::::::::::::::::::
         :: total free energy         -31.377371614631 Eh   ::
         ::.................................................::
         :: total energy              -31.557019845742 Eh   ::
         :: zero point energy           0.218515683767 Eh   ::
         :: G(RRHO) w/o ZPVE           -0.038867452656 Eh   ::
         :: G(RRHO) contrib.            0.179648231111 Eh   ::
         :::::::::::::::::::::::::::::::::::::::::::::::::::::

optimized geometry written to: xtbopt.xyz


           -------------------------------------------------
          | TOTAL ENERGY              -31.557019845742 Eh   |
          | TOTAL ENTHALPY            -31.324791102490 Eh   |
          | TOTAL FREE ENERGY         -31.377371614631 Eh   |
          | GRADIENT NORM               0.000025648063 Eh/α |
          | HOMO-LUMO GAP               3.636952935754 eV   |
           -------------------------------------------------

------------------------------------------------------------------------
 * finished run on 2025/07/14 at 11:31:45.815     
------------------------------------------------------------------------
 total:
 * wall-time:     0 d,  0 h,  0 min,  6.970 sec
 *  cpu-time:     0 d,  0 h,  1 min,  9.825 sec
 * ratio c/w:    10.018 speedup
 SCF:
 * wall-time:     0 d,  0 h,  0 min,  0.088 sec
 *  cpu-time:     0 d,  0 h,  0 min,  1.049 sec
 * ratio c/w:    11.919 speedup
 ANC optimizer:
 * wall-time:     0 d,  0 h,  0 min,  3.596 sec
 *  cpu-time:     0 d,  0 h,  0 min, 42.682 sec
 * ratio c/w:    11.869 speedup
 analytical hessian:
 * wall-time:     0 d,  0 h,  0 min,  3.275 sec
 *  cpu-time:     0 d,  0 h,  0 min, 25.985 sec
 * ratio c/w:     7.934 speedup

