      -----------------------------------------------------------      
     |                   =====================                   |     
     |                           x T B                           |     
     |                   =====================                   |     
     |                         S. Grimme                         |     
     |          Mulliken Center for Theoretical Chemistry        |     
     |                    University of Bonn                     |     
      -----------------------------------------------------------      

   * xtb version 6.7.0 (08769fc) compiled by 'albert@albert-system' on 2024-03-04

   xtb is free software: you can redistribute it and/or modify it under
   the terms of the GNU Lesser General Public License as published by
   the Free Software Foundation, either version 3 of the License, or
   (at your option) any later version.
   
   xtb is distributed in the hope that it will be useful,
   but WITHOUT ANY WARRANTY; without even the implied warranty of
   MERCHANTABILITY or FITNESS FOR A PARTICULAR PURPOSE.  See the
   GNU Lesser General Public License for more details.
   
   Cite this work as:
   * C. Bannwarth, E. Caldeweyher, S. Ehlert, A. Hansen, P. Pracht,
     J. Seibert, S. Spicher, S. Grimme, WIREs Comput. Mol. Sci., 2020, 11,
     e01493. DOI: 10.1002/wcms.1493
   
   for GFN2-xTB:
   * C. Bannwarth, S. Ehlert and S. Grimme., J. Chem. Theory Comput., 2019,
     15, 1652-1671. DOI: 10.1021/acs.jctc.8b01176
   for GFN1-xTB:
   * S. Grimme, C. Bannwarth, P. Shushkov, J. Chem. Theory Comput., 2017,
     13, 1989-2009. DOI: 10.1021/acs.jctc.7b00118
   for GFN0-xTB:
   * P. Pracht, E. Caldeweyher, S. Ehlert, S. Grimme, ChemRxiv, 2019, preprint.
     DOI: 10.26434/chemrxiv.8326202.v1
   for GFN-FF:
   * S. Spicher and S. Grimme, Angew. Chem. Int. Ed., 2020, 59, 15665-15673.
     DOI: 10.1002/anie.202004239
   
   for ALPB and GBSA implicit solvation:
   * S. Ehlert, M. Stahn, S. Spicher, S. Grimme, J. Chem. Theory Comput.,
     2021, 17, 4250-4261. DOI: 10.1021/acs.jctc.1c00471
   
   for ddCOSMO and CPCM-X implicit solvation:
   * M. Stahn, S. Ehlert, S. Grimme, J. Phys. Chem. A,
     2023, XX, XXXX-XXXX. DOI: 10.1021/acs.jpca.3c04382
   
   for DFT-D4:
   * E. Caldeweyher, C. Bannwarth and S. Grimme, J. Chem. Phys., 2017,
     147, 034112. DOI: 10.1063/1.4993215
   * E. Caldeweyher, S. Ehlert, A. Hansen, H. Neugebauer, S. Spicher,
     C. Bannwarth and S. Grimme, J. Chem. Phys., 2019, 150, 154122.
     DOI: 10.1063/1.5090222
   * E. Caldeweyher, J.-M. Mewes, S. Ehlert and S. Grimme, Phys. Chem. Chem. Phys.
     2020, 22, 8499-8512. DOI: 10.1039/D0CP00502A
   
   for sTDA-xTB:
   * S. Grimme and C. Bannwarth, J. Chem. Phys., 2016, 145, 054103.
     DOI: 10.1063/1.4959605
   
   in the mass-spec context:
   * V. Asgeirsson, C. Bauer and S. Grimme, Chem. Sci., 2017, 8, 4879.
     DOI: 10.1039/c7sc00601b
   * J. Koopman and S. Grimme, ACS Omega 2019, 4, 12, 15120-15133.
     DOI: 10.1021/acsomega.9b02011
   
   for metadynamics refer to:
   * S. Grimme, J. Chem. Theory Comput., 2019, 155, 2847-2862
     DOI: 10.1021/acs.jctc.9b00143
   
   for SPH calculations refer to:
   * S. Spicher and S. Grimme, J. Chem. Theory Comput., 2021, 17, 1701-1714
     DOI: 10.1021/acs.jctc.0c01306
   
   for ONIOM refer to:
   * C. Plett, A. Katbashev, S. Ehlert, S. Grimme, M. Bursch,
     Phys. Chem. Chem. Phys., 2023, 25, 17860-17868. DOI: 10.1039/D3CP02178E
   
   for DIPRO refer to:
   * J. Kohn, N. Gildemeister, S. Grimme, D. Fazzi, A. Hansen,
     J. Chem. Phys., 2023, just accepted.
   
   for PTB refer to:
   * S. Grimme, M. Mueller, A. Hansen, J. Chem. Phys., 2023, 158, 124111.
     DOI: 10.1063/5.0137838
   
   with help from (in alphabetical order)
   P. Atkinson, C. Bannwarth, F. Bohle, G. Brandenburg, E. Caldeweyher
   M. Checinski, S. Dohm, S. Ehlert, S. Ehrlich, I. Gerasimov, C. Hölzer
   A. Katbashev, J. Kohn, J. Koopman, C. Lavigne, S. Lehtola, F. März, M. Müller,
   F. Musil, H. Neugebauer, J. Pisarek, C. Plett, P. Pracht, F. Pultar,
   J. Seibert, P. Shushkov, S. Spicher, M. Stahn, M. Steiner, T. Strunk,
   J. Stückrath, T. Rose, and J. Unsleber
   
 * started run on 2025/07/14 at 11:36:50.339     
   ID    Z sym.   atoms
    1   15 P      1
    2    6 C      2, 5, 9-14, 20, 23
    3    1 H      3, 4, 6-8, 15-19, 21, 22, 24-26

           -------------------------------------------------
          |                Calculation Setup                |
           -------------------------------------------------

          program call               : /home/minenky/programs/xtb/xtb-dist/bin/xtb m1_00_PEt2Ph-PBE0-D3-TZ-uniMM_65.xyz --charge 0 --T --ohess extreme --cycles 5000 --acc 0.01 --iterations 5000
          coordinate file            : m1_00_PEt2Ph-PBE0-D3-TZ-uniMM_65.xyz
          omp threads                :                    12

########################################################################
[WARNING] Please study the warnings concerning your input carefully
-1- prog_main_parseArguments: Unknown option '--T' provided
########################################################################

           -------------------------------------------------
          |                 G F N 2 - x T B                 |
           -------------------------------------------------

        Reference                      10.1021/acs.jctc.8b01176
      * Hamiltonian:
        H0-scaling (s, p, d)           1.850000    2.230000    2.230000
        zeta-weighting                 0.500000
      * Dispersion:
        s8                             2.700000
        a1                             0.520000
        a2                             5.000000
        s9                             5.000000
      * Repulsion:
        kExp                           1.500000    1.000000
        rExp                           1.000000
      * Coulomb:
        alpha                          2.000000
        third order                    shell-resolved
        anisotropic                    true
        a3                             3.000000
        a5                             4.000000
        cn-shift                       1.200000
        cn-exp                         4.000000
        max-rad                        5.000000


          ...................................................
          :                      SETUP                      :
          :.................................................:
          :  # basis functions                  65          :
          :  # atomic orbitals                  64          :
          :  # shells                           38          :
          :  # electrons                        60          :
          :  max. iterations                  5000          :
          :  Hamiltonian                  GFN2-xTB          :
          :  restarted?                      false          :
          :  GBSA solvation                  false          :
          :  PC potential                    false          :
          :  electronic temp.          300.0000000     K    :
          :  accuracy                    0.0100000          :
          :  -> integral cutoff          0.4500000E+02      :
          :  -> integral neglect         0.1000000E-09      :
          :  -> SCF convergence          0.1000000E-07 Eh   :
          :  -> wf. convergence          0.1000000E-05 e    :
          :  Broyden damping             0.4000000          :
          :  net charge                          0          :
          :  unpaired electrons                  0          :
          ...................................................

 iter      E             dE          RMSdq      gap      omega  full diag
   1    -31.9963374 -0.319963E+02  0.372E+00    3.92       0.0  T
   2    -32.0387048 -0.423674E-01  0.220E+00    3.39       1.0  T
   3    -32.0384202  0.284572E-03  0.912E-01    3.11       1.0  T
   4    -32.0397182 -0.129804E-02  0.279E-01    3.12       1.0  T
   5    -32.0407708 -0.105255E-02  0.125E-01    3.17       1.0  T
   6    -32.0409939 -0.223171E-03  0.403E-02    3.16       1.0  T
   7    -32.0410092 -0.152367E-04  0.161E-02    3.17       1.2  T
   8    -32.0410102 -0.100246E-05  0.720E-03    3.17       2.7  T
   9    -32.0410107 -0.556036E-06  0.140E-03    3.17      14.0  T
  10    -32.0410108 -0.282626E-07  0.566E-04    3.17      34.6  T
  11    -32.0410108 -0.112961E-08  0.255E-04    3.17      77.0  T
  12    -32.0410108 -0.471701E-09  0.437E-05    3.17     448.8  T
  13    -32.0410108 -0.384404E-11  0.162E-05    3.17    1210.6  T
  14    -32.0410108 -0.646594E-12  0.788E-06    3.17    2488.9  T
  15    -32.0410108 -0.667910E-12  0.272E-06    3.17    7209.7  T

   *** convergence criteria satisfied after 15 iterations ***

         #    Occupation            Energy/Eh            Energy/eV
      -------------------------------------------------------------
         1        2.0000           -0.6597709             -17.9533
       ...           ...                  ...                  ...
        24        2.0000           -0.4313092             -11.7365
        25        2.0000           -0.4233139             -11.5190
        26        2.0000           -0.4193563             -11.4113
        27        2.0000           -0.4079944             -11.1021
        28        2.0000           -0.4009209             -10.9096
        29        2.0000           -0.3979584             -10.8290
        30        2.0000           -0.3512482              -9.5580 (HOMO)
        31                         -0.2349036              -6.3921 (LUMO)
        32                         -0.2234605              -6.0807
        33                         -0.1564853              -4.2582
        34                         -0.1376587              -3.7459
        35                         -0.0890933              -2.4244
       ...                                ...                  ...
        64                          0.7503049              20.4168
      -------------------------------------------------------------
                  HL-Gap            0.1163446 Eh            3.1659 eV
             Fermi-level           -0.2930759 Eh           -7.9750 eV

 SCC (total)                   0 d,  0 h,  0 min,  0.091 sec
 SCC setup                      ...        0 min,  0.000 sec (  0.220%)
 Dispersion                     ...        0 min,  0.000 sec (  0.228%)
 classical contributions        ...        0 min,  0.000 sec (  0.072%)
 integral evaluation            ...        0 min,  0.002 sec (  2.672%)
 iterations                     ...        0 min,  0.086 sec ( 94.232%)
 molecular gradient             ...        0 min,  0.002 sec (  2.456%)
 printout                       ...        0 min,  0.000 sec (  0.097%)

         :::::::::::::::::::::::::::::::::::::::::::::::::::::
         ::                     SUMMARY                     ::
         :::::::::::::::::::::::::::::::::::::::::::::::::::::
         :: total energy             -31.525659262436 Eh    ::
         :: gradient norm              0.060746779321 Eh/a0 ::
         :: HOMO-LUMO gap              3.165897748569 eV    ::
         ::.................................................::
         :: SCC energy               -32.040780644445 Eh    ::
         :: -> isotropic ES            0.004570602888 Eh    ::
         :: -> anisotropic ES          0.006140993864 Eh    ::
         :: -> anisotropic XC          0.022772971093 Eh    ::
         :: -> dispersion             -0.025105032147 Eh    ::
         :: repulsion energy           0.515121382009 Eh    ::
         :: add. restraining           0.000000000000 Eh    ::
         :: total charge              -0.000000000000 e     ::
         :::::::::::::::::::::::::::::::::::::::::::::::::::::

      ----------------------------------------------------------- 
     |                   =====================                   |
     |                        A N C O P T                        |
     |                   =====================                   |
     |               Approximate Normal Coordinate               |
     |                Rational Function Optimizer                |
      ----------------------------------------------------------- 
      ----------------------------------------------------------- 
     |                   =====================                   |
     |                        A N C O P T                        |
     |                   =====================                   |
     |               Approximate Normal Coordinate               |
     |                Rational Function Optimizer                |
      ----------------------------------------------------------- 

          ...................................................
          :                      SETUP                      :
          :.................................................:
          :   optimization level           extreme          :
          :   max. optcycles                  5000          :
          :   ANC micro-cycles                  20          :
          :   degrees of freedom                72          :
          :.................................................:
          :   RF solver                   davidson          :
          :   write xtbopt.log                true          :
          :   linear?                        false          :
          :   energy convergence         0.5000000E-07 Eh   :
          :   grad. convergence          0.5000000E-04 Eh/α :
          :   maxmium RF displ.          1.0000000          :
          :   Hlow (freq-cutoff)         0.1000000E-01      :
          :   Hmax (freq-cutoff)         5.0000000          :
          :   S6 in model hess.         20.0000000          :
          ...................................................

generating ANC from model Hessian ...
Using Lindh-Hessian (1995)
 Shifting diagonal of input Hessian by   1.304830066890169E-002
 Lowest  eigenvalues of input Hessian
    0.010000    0.000000    0.000000    0.000000    0.000000    0.000000
    0.000000    0.013927    0.014368    0.014894    0.015307    0.016757
    0.017931    0.021809    0.022711    0.023539    0.025571    0.026788
 Highest eigenvalues
    1.350795    1.538405    1.565860    1.867490    1.969451    1.989643
 

........................................................................
.............................. CYCLE    1 ..............................
........................................................................

 iter      E             dE          RMSdq      gap      omega  full diag
   1    -32.0410108 -0.320410E+02  0.104E-06    3.17       0.0  T
   2    -32.0410108  0.000000E+00  0.495E-07    3.17   39635.0  T
   3    -32.0410108  0.284217E-13  0.364E-07    3.17   53842.6  T
     SCC iter.                  ...        0 min,  0.080 sec
     gradient                   ...        0 min,  0.003 sec
 * total energy  :   -31.5256593 Eh     change        0.0000000E+00 Eh
   gradient norm :     0.0607468 Eh/α   predicted     0.0000000E+00 (    NaN%)
   displ. norm   :     0.6282542 α      lambda       -0.2217171E-01
   maximum displ.:     0.3406583 α      in ANC's #6, #1, #7, ...

........................................................................
.............................. CYCLE    2 ..............................
........................................................................

 iter      E             dE          RMSdq      gap      omega  full diag
   1    -32.0574351 -0.320574E+02  0.429E-01    3.38       0.0  T
   2    -32.0577749 -0.339817E-03  0.207E-01    3.44       1.0  T
   3    -32.0577992 -0.242208E-04  0.879E-02    3.47       1.0  T
   4    -32.0578174 -0.182332E-04  0.424E-02    3.47       1.0  T
   5    -32.0578212 -0.376678E-05  0.135E-02    3.47       1.5  T
   6    -32.0578247 -0.356107E-05  0.464E-03    3.47       4.2  T
   7    -32.0578248 -0.346148E-07  0.168E-03    3.47      11.7  T
   8    -32.0578248 -0.162782E-07  0.784E-04    3.47      25.0  T
   9    -32.0578248 -0.696352E-08  0.234E-04    3.47      83.7  T
  10    -32.0578248 -0.238252E-09  0.938E-05    3.47     209.0  T
  11    -32.0578248 -0.201439E-10  0.334E-05    3.47     587.4  T
  12    -32.0578248 -0.721911E-11  0.104E-05    3.47    1885.8  T
  13    -32.0578248 -0.497380E-13  0.356E-06    3.47    5503.6  T
  14    -32.0578248 -0.149214E-12  0.174E-06    3.47   11294.1  T
     SCC iter.                  ...        0 min,  0.076 sec
     gradient                   ...        0 min,  0.002 sec
 * total energy  :   -31.5394919 Eh     change       -0.1383263E-01 Eh
   gradient norm :     0.0208468 Eh/α   predicted    -0.1546150E-01 (  11.78%)
   displ. norm   :     0.4488158 α      lambda       -0.5228402E-02
   maximum displ.:     0.3024463 α      in ANC's #6, #1, #10, ...

........................................................................
.............................. CYCLE    3 ..............................
........................................................................

 iter      E             dE          RMSdq      gap      omega  full diag
   1    -32.0609582 -0.320610E+02  0.180E-01    3.47       0.0  T
   2    -32.0609799 -0.216397E-04  0.986E-02    3.47       1.0  T
   3    -32.0609785  0.140880E-05  0.408E-02    3.47       1.0  T
   4    -32.0609831 -0.467082E-05  0.787E-03    3.47       2.5  T
   5    -32.0609833 -0.112846E-06  0.382E-03    3.47       5.1  T
   6    -32.0609835 -0.221950E-06  0.135E-03    3.47      14.5  T
   7    -32.0609835 -0.418801E-08  0.562E-04    3.47      34.9  T
   8    -32.0609835 -0.155985E-09  0.215E-04    3.47      91.0  T
   9    -32.0609835 -0.790870E-09  0.101E-04    3.47     194.8  T
  10    -32.0609835 -0.653344E-10  0.261E-05    3.47     750.3  T
  11    -32.0609835 -0.159162E-11  0.113E-05    3.47    1730.0  T
  12    -32.0609835 -0.412115E-12  0.413E-06    3.47    4752.6  T
  13    -32.0609835 -0.568434E-13  0.178E-06    3.47   10990.6  T
     SCC iter.                  ...        0 min,  0.074 sec
     gradient                   ...        0 min,  0.002 sec
 * total energy  :   -31.5433044 Eh     change       -0.3812480E-02 Eh
   gradient norm :     0.0094313 Eh/α   predicted    -0.3140865E-02 ( -17.62%)
   displ. norm   :     0.4263301 α      lambda       -0.2493152E-02
   maximum displ.:     0.3020880 α      in ANC's #6, #1, #10, ...

........................................................................
.............................. CYCLE    4 ..............................
........................................................................

 iter      E             dE          RMSdq      gap      omega  full diag
   1    -32.0618281 -0.320618E+02  0.147E-01    3.48       0.0  T
   2    -32.0618412 -0.131216E-04  0.829E-02    3.49       1.0  T
   3    -32.0618383  0.288546E-05  0.290E-02    3.49       1.0  T
   4    -32.0618434 -0.507361E-05  0.864E-03    3.49       2.3  T
   5    -32.0618435 -0.118656E-06  0.374E-03    3.49       5.2  T
   6    -32.0618438 -0.249902E-06  0.122E-03    3.49      16.0  T
   7    -32.0618438 -0.153981E-08  0.479E-04    3.49      40.9  T
   8    -32.0618438 -0.501174E-09  0.191E-04    3.49     102.8  T
   9    -32.0618438 -0.739490E-09  0.666E-05    3.49     294.3  T
  10    -32.0618438 -0.169464E-10  0.221E-05    3.49     885.5  T
  11    -32.0618438 -0.171241E-11  0.105E-05    3.49    1863.9  T
  12    -32.0618438 -0.419220E-12  0.404E-06    3.49    4852.0  T
  13    -32.0618438 -0.710543E-13  0.119E-06    3.49   16451.1  T
     SCC iter.                  ...        0 min,  0.074 sec
     gradient                   ...        0 min,  0.002 sec
 * total energy  :   -31.5450178 Eh     change       -0.1713468E-02 Eh
   gradient norm :     0.0066187 Eh/α   predicted    -0.1473151E-02 ( -14.03%)
   displ. norm   :     0.3374683 α      lambda       -0.9362837E-03
   maximum displ.:     0.2182062 α      in ANC's #6, #1, #10, ...

........................................................................
.............................. CYCLE    5 ..............................
........................................................................

 iter      E             dE          RMSdq      gap      omega  full diag
   1    -32.0627719 -0.320628E+02  0.106E-01    3.47       0.0  T
   2    -32.0627750 -0.313179E-05  0.606E-02    3.47       1.0  T
   3    -32.0627731  0.186823E-05  0.144E-02    3.47       1.4  T
   4    -32.0627756 -0.250360E-05  0.383E-03    3.47       5.1  T
   5    -32.0627757 -0.817451E-07  0.177E-03    3.47      11.1  T
   6    -32.0627757 -0.302028E-07  0.714E-04    3.47      27.5  T
   7    -32.0627757 -0.253280E-09  0.256E-04    3.47      76.6  T
   8    -32.0627757 -0.598128E-09  0.106E-04    3.47     185.8  T
   9    -32.0627757 -0.120423E-09  0.472E-05    3.47     415.6  T
  10    -32.0627757 -0.166835E-10  0.162E-05    3.47    1212.4  T
  11    -32.0627757 -0.117950E-11  0.631E-06    3.47    3108.7  T
  12    -32.0627757  0.355271E-13  0.269E-06    3.47    7290.2  T
     SCC iter.                  ...        0 min,  0.074 sec
     gradient                   ...        0 min,  0.002 sec
 * total energy  :   -31.5456657 Eh     change       -0.6478551E-03 Eh
   gradient norm :     0.0048421 Eh/α   predicted    -0.5214570E-03 ( -19.51%)
   displ. norm   :     0.2721557 α      lambda       -0.4267963E-03
   maximum displ.:     0.1509886 α      in ANC's #6, #1, #7, ...

........................................................................
.............................. CYCLE    6 ..............................
........................................................................

 iter      E             dE          RMSdq      gap      omega  full diag
   1    -32.0636475 -0.320636E+02  0.988E-02    3.47       0.0  T
   2    -32.0636498 -0.229271E-05  0.557E-02    3.47       1.0  T
   3    -32.0636488  0.100047E-05  0.110E-02    3.47       1.8  T
   4    -32.0636500 -0.128168E-05  0.368E-03    3.47       5.3  T
   5    -32.0636502 -0.176288E-06  0.106E-03    3.47      18.5  T
   6    -32.0636502 -0.907296E-08  0.465E-04    3.47      42.2  T
   7    -32.0636502 -0.865441E-10  0.149E-04    3.47     131.2  T
   8    -32.0636502 -0.210910E-09  0.644E-05    3.47     304.3  T
   9    -32.0636502 -0.105373E-10  0.236E-05    3.47     830.1  T
  10    -32.0636502 -0.255795E-11  0.131E-05    3.47    1497.1  T
  11    -32.0636502 -0.162714E-11  0.427E-06    3.47    4596.4  T
  12    -32.0636502 -0.994760E-13  0.161E-06    3.47   12190.8  T
     SCC iter.                  ...        0 min,  0.074 sec
     gradient                   ...        0 min,  0.002 sec
 * total energy  :   -31.5459668 Eh     change       -0.3010895E-03 Eh
   gradient norm :     0.0037688 Eh/α   predicted    -0.2292098E-03 ( -23.87%)
   displ. norm   :     0.2482871 α      lambda       -0.2658918E-03
   maximum displ.:     0.1510385 α      in ANC's #1, #7, #6, ...

........................................................................
.............................. CYCLE    7 ..............................
........................................................................

 iter      E             dE          RMSdq      gap      omega  full diag
   1    -32.0645430 -0.320645E+02  0.987E-02    3.46       0.0  T
   2    -32.0645449 -0.189040E-05  0.559E-02    3.46       1.0  T
   3    -32.0645446  0.337272E-06  0.884E-03    3.46       2.2  T
   4    -32.0645451 -0.499898E-06  0.330E-03    3.46       5.9  T
   5    -32.0645452 -0.138219E-06  0.106E-03    3.46      18.6  T
   6    -32.0645452 -0.859785E-08  0.495E-04    3.46      39.6  T
   7    -32.0645452 -0.554273E-09  0.118E-04    3.46     165.5  T
   8    -32.0645452 -0.680629E-10  0.483E-05    3.46     406.0  T
   9    -32.0645452 -0.587619E-11  0.164E-05    3.46    1193.1  T
  10    -32.0645452 -0.126477E-11  0.615E-06    3.46    3189.3  T
  11    -32.0645452 -0.135003E-12  0.244E-06    3.46    8026.8  T
     SCC iter.                  ...        0 min,  0.073 sec
     gradient                   ...        0 min,  0.002 sec
 * total energy  :   -31.5461634 Eh     change       -0.1966513E-03 Eh
   gradient norm :     0.0034227 Eh/α   predicted    -0.1411419E-03 ( -28.23%)
   displ. norm   :     0.2784168 α      lambda       -0.2440772E-03
   maximum displ.:     0.1655845 α      in ANC's #1, #7, #8, ...

........................................................................
.............................. CYCLE    8 ..............................
........................................................................

 iter      E             dE          RMSdq      gap      omega  full diag
   1    -32.0652042 -0.320652E+02  0.115E-01    3.46       0.0  T
   2    -32.0652059 -0.172381E-05  0.655E-02    3.46       1.0  T
   3    -32.0652055  0.422654E-06  0.875E-03    3.47       2.2  T
   4    -32.0652061 -0.581303E-06  0.328E-03    3.47       6.0  T
   5    -32.0652063 -0.151845E-06  0.978E-04    3.47      20.1  T
   6    -32.0652063 -0.839248E-08  0.506E-04    3.47      38.8  T
   7    -32.0652063 -0.649123E-09  0.113E-04    3.47     174.1  T
   8    -32.0652063 -0.119222E-09  0.368E-05    3.47     533.6  T
   9    -32.0652063 -0.105160E-11  0.221E-05    3.47     886.0  T
  10    -32.0652063 -0.468248E-11  0.622E-06    3.47    3153.1  T
  11    -32.0652063 -0.298428E-12  0.197E-06    3.47    9968.8  T
     SCC iter.                  ...        0 min,  0.073 sec
     gradient                   ...        0 min,  0.002 sec
 * total energy  :   -31.5463509 Eh     change       -0.1874318E-03 Eh
   gradient norm :     0.0041408 Eh/α   predicted    -0.1315088E-03 ( -29.84%)
   displ. norm   :     0.3609720 α      lambda       -0.2730932E-03
   maximum displ.:     0.2225593 α      in ANC's #1, #7, #5, ...

........................................................................
.............................. CYCLE    9 ..............................
........................................................................

 iter      E             dE          RMSdq      gap      omega  full diag
   1    -32.0651305 -0.320651E+02  0.140E-01    3.46       0.0  T
   2    -32.0651322 -0.167407E-05  0.812E-02    3.47       1.0  T
   3    -32.0651319  0.317642E-06  0.797E-03    3.47       2.5  T
   4    -32.0651324 -0.549984E-06  0.338E-03    3.47       5.8  T
   5    -32.0651326 -0.151235E-06  0.111E-03    3.47      17.6  T
   6    -32.0651326 -0.669818E-08  0.591E-04    3.47      33.2  T
   7    -32.0651326 -0.102524E-08  0.950E-05    3.47     206.5  T
   8    -32.0651326 -0.525802E-10  0.346E-05    3.47     566.9  T
   9    -32.0651326 -0.188294E-11  0.142E-05    3.47    1379.3  T
  10    -32.0651326 -0.838440E-12  0.443E-06    3.47    4429.4  T
  11    -32.0651326 -0.120792E-12  0.183E-06    3.47   10720.7  T
     SCC iter.                  ...        0 min,  0.073 sec
     gradient                   ...        0 min,  0.002 sec
 * total energy  :   -31.5465588 Eh     change       -0.2079004E-03 Eh
   gradient norm :     0.0051415 Eh/α   predicted    -0.1543419E-03 ( -25.76%)
   displ. norm   :     0.3732992 α      lambda       -0.2480907E-03
   maximum displ.:     0.2286035 α      in ANC's #1, #7, #5, ...

........................................................................
.............................. CYCLE   10 ..............................
........................................................................

 iter      E             dE          RMSdq      gap      omega  full diag
   1    -32.0647726 -0.320648E+02  0.134E-01    3.47       0.0  T
   2    -32.0647735 -0.919901E-06  0.783E-02    3.48       1.0  T
   3    -32.0647731  0.463056E-06  0.636E-03    3.48       3.1  T
   4    -32.0647738 -0.749586E-06  0.258E-03    3.48       7.6  T
   5    -32.0647739 -0.706598E-07  0.857E-04    3.48      22.9  T
   6    -32.0647739 -0.333358E-09  0.371E-04    3.48      52.8  T
   7    -32.0647739 -0.934286E-09  0.662E-05    3.48     296.3  T
   8    -32.0647739 -0.215934E-10  0.296E-05    3.48     661.7  T
   9    -32.0647739 -0.355982E-11  0.967E-06    3.48    2027.1  T
  10    -32.0647739 -0.143530E-11  0.473E-06    3.48    4150.2  T
     SCC iter.                  ...        0 min,  0.073 sec
     gradient                   ...        0 min,  0.002 sec
 * total energy  :   -31.5467449 Eh     change       -0.1861110E-03 Eh
   gradient norm :     0.0054404 Eh/α   predicted    -0.1413443E-03 ( -24.05%)
   displ. norm   :     0.3535459 α      lambda       -0.2150757E-03
   maximum displ.:     0.2254653 α      in ANC's #1, #3, #7, ...

........................................................................
.............................. CYCLE   11 ..............................
........................................................................

 iter      E             dE          RMSdq      gap      omega  full diag
   1    -32.0643566 -0.320644E+02  0.118E-01    3.49       0.0  T
   2    -32.0643573 -0.710769E-06  0.691E-02    3.49       1.0  T
   3    -32.0643568  0.515574E-06  0.657E-03    3.49       3.0  T
   4    -32.0643576 -0.812282E-06  0.191E-03    3.49      10.3  T
   5    -32.0643576 -0.143946E-07  0.841E-04    3.49      23.3  T
   6    -32.0643576 -0.356488E-08  0.328E-04    3.49      59.7  T
   7    -32.0643576 -0.288139E-09  0.114E-04    3.49     172.7  T
   8    -32.0643576 -0.145391E-09  0.412E-05    3.49     476.6  T
   9    -32.0643576 -0.171880E-10  0.119E-05    3.49    1643.1  T
  10    -32.0643576 -0.132871E-11  0.630E-06    3.49    3111.3  T
  11    -32.0643576 -0.355271E-12  0.203E-06    3.49    9662.0  T
     SCC iter.                  ...        0 min,  0.073 sec
     gradient                   ...        0 min,  0.002 sec
 * total energy  :   -31.5469141 Eh     change       -0.1692445E-03 Eh
   gradient norm :     0.0056010 Eh/α   predicted    -0.1210008E-03 ( -28.51%)
   displ. norm   :     0.3445508 α      lambda       -0.2561103E-03
   maximum displ.:     0.2135682 α      in ANC's #1, #3, #4, ...

........................................................................
.............................. CYCLE   12 ..............................
........................................................................

 iter      E             dE          RMSdq      gap      omega  full diag
   1    -32.0650932 -0.320651E+02  0.106E-01    3.51       0.0  T
   2    -32.0650941 -0.984681E-06  0.620E-02    3.51       1.0  T
   3    -32.0650934  0.768523E-06  0.850E-03    3.51       2.3  T
   4    -32.0650944 -0.104735E-05  0.213E-03    3.51       9.2  T
   5    -32.0650945 -0.393276E-07  0.943E-04    3.51      20.8  T
   6    -32.0650945 -0.727242E-08  0.401E-04    3.51      48.9  T
   7    -32.0650945 -0.288004E-09  0.138E-04    3.51     141.7  T
   8    -32.0650945 -0.128090E-09  0.559E-05    3.51     350.8  T
   9    -32.0650945 -0.332818E-10  0.165E-05    3.51    1191.9  T
  10    -32.0650945 -0.291323E-11  0.672E-06    3.51    2916.3  T
  11    -32.0650945 -0.405009E-12  0.222E-06    3.51    8852.4  T
     SCC iter.                  ...        0 min,  0.073 sec
     gradient                   ...        0 min,  0.002 sec
 * total energy  :   -31.5471279 Eh     change       -0.2137523E-03 Eh
   gradient norm :     0.0057317 Eh/α   predicted    -0.1432609E-03 ( -32.98%)
   displ. norm   :     0.5166924 α      lambda       -0.3848020E-03
   maximum displ.:     0.3252729 α      in ANC's #1, #3, #4, ...

........................................................................
.............................. CYCLE   13 ..............................
........................................................................

 iter      E             dE          RMSdq      gap      omega  full diag
   1    -32.0634809 -0.320635E+02  0.154E-01    3.52       0.0  T
   2    -32.0634829 -0.200136E-05  0.905E-02    3.52       1.0  T
   3    -32.0634817  0.120575E-05  0.129E-02    3.52       1.5  T
   4    -32.0634834 -0.174487E-05  0.294E-03    3.52       6.7  T
   5    -32.0634835 -0.696489E-07  0.149E-03    3.52      13.2  T
   6    -32.0634835 -0.211887E-07  0.599E-04    3.52      32.8  T
   7    -32.0634835 -0.126344E-08  0.187E-04    3.52     104.6  T
   8    -32.0634835 -0.869704E-10  0.745E-05    3.52     263.2  T
   9    -32.0634835 -0.109139E-09  0.229E-05    3.52     857.3  T
  10    -32.0634835 -0.278533E-11  0.940E-06    3.52    2085.9  T
  11    -32.0634835 -0.724754E-12  0.433E-06    3.52    4525.9  T
     SCC iter.                  ...        0 min,  0.073 sec
     gradient                   ...        0 min,  0.002 sec
 * total energy  :   -31.5474504 Eh     change       -0.3225124E-03 Eh
   gradient norm :     0.0078026 Eh/α   predicted    -0.2437697E-03 ( -24.42%)
   displ. norm   :     0.5630784 α      lambda       -0.5285382E-03
   maximum displ.:     0.3185898 α      in ANC's #1, #3, #4, ...

........................................................................
.............................. CYCLE   14 ..............................
........................................................................

 iter      E             dE          RMSdq      gap      omega  full diag
   1    -32.0650868 -0.320651E+02  0.152E-01    3.54       0.0  T
   2    -32.0650891 -0.226490E-05  0.898E-02    3.54       1.0  T
   3    -32.0650877  0.137862E-05  0.137E-02    3.54       1.4  T
   4    -32.0650896 -0.191454E-05  0.335E-03    3.54       5.9  T
   5    -32.0650897 -0.129629E-06  0.141E-03    3.54      13.9  T
   6    -32.0650898 -0.174541E-07  0.565E-04    3.54      34.7  T
   7    -32.0650898 -0.756309E-09  0.141E-04    3.54     138.8  T
   8    -32.0650898 -0.536531E-10  0.522E-05    3.54     375.9  T
   9    -32.0650898 -0.303402E-10  0.243E-05    3.54     805.4  T
  10    -32.0650898 -0.547118E-11  0.889E-06    3.54    2205.5  T
  11    -32.0650898 -0.603961E-12  0.399E-06    3.54    4913.5  T
     SCC iter.                  ...        0 min,  0.073 sec
     gradient                   ...        0 min,  0.002 sec
 * total energy  :   -31.5478427 Eh     change       -0.3923442E-03 Eh
   gradient norm :     0.0101699 Eh/α   predicted    -0.3480653E-03 ( -11.29%)
   displ. norm   :     0.5767388 α      lambda       -0.4676884E-03
   maximum displ.:     0.3362106 α      in ANC's #1, #3, #4, ...

........................................................................
.............................. CYCLE   15 ..............................
........................................................................

 iter      E             dE          RMSdq      gap      omega  full diag
   1    -32.0605675 -0.320606E+02  0.165E-01    3.54       0.0  T
   2    -32.0605720 -0.448858E-05  0.964E-02    3.55       1.0  T
   3    -32.0605705  0.151145E-05  0.210E-02    3.54       1.0  T
   4    -32.0605730 -0.244449E-05  0.321E-03    3.55       6.1  T
   5    -32.0605730 -0.249808E-07  0.204E-03    3.54       9.6  T
   6    -32.0605730 -0.287087E-07  0.705E-04    3.54      27.8  T
   7    -32.0605730 -0.301550E-08  0.211E-04    3.54      92.9  T
   8    -32.0605730 -0.237797E-09  0.726E-05    3.54     270.0  T
   9    -32.0605730 -0.353211E-10  0.264E-05    3.54     742.7  T
  10    -32.0605730 -0.452616E-11  0.140E-05    3.54    1405.3  T
  11    -32.0605730 -0.127898E-11  0.481E-06    3.54    4074.6  T
  12    -32.0605730  0.710543E-14  0.181E-06    3.54   10860.0  T
     SCC iter.                  ...        0 min,  0.075 sec
     gradient                   ...        0 min,  0.002 sec
 * total energy  :   -31.5481719 Eh     change       -0.3291656E-03 Eh
   gradient norm :     0.0122300 Eh/α   predicted    -0.3116287E-03 (  -5.33%)
   displ. norm   :     0.4628645 α      lambda       -0.1160641E-02
   maximum displ.:     0.2664647 α      in ANC's #4, #3, #1, ...

........................................................................
.............................. CYCLE   16 ..............................
........................................................................

 iter      E             dE          RMSdq      gap      omega  full diag
   1    -32.0713584 -0.320714E+02  0.132E-01    3.55       0.0  T
   2    -32.0713630 -0.454359E-05  0.785E-02    3.55       1.0  T
   3    -32.0713625  0.460348E-06  0.135E-02    3.55       1.5  T
   4    -32.0713638 -0.133523E-05  0.465E-03    3.55       4.2  T
   5    -32.0713639 -0.707089E-07  0.168E-03    3.55      11.7  T
   6    -32.0713639 -0.227684E-07  0.837E-04    3.55      23.4  T
   7    -32.0713639 -0.357535E-08  0.285E-04    3.55      68.8  T
   8    -32.0713639 -0.987434E-09  0.103E-04    3.55     190.7  T
   9    -32.0713639 -0.196962E-10  0.459E-05    3.55     427.0  T
  10    -32.0713639 -0.132374E-10  0.162E-05    3.55    1209.5  T
  11    -32.0713639 -0.126477E-11  0.511E-06    3.55    3836.3  T
  12    -32.0713639 -0.142109E-12  0.172E-06    3.55   11424.3  T
     SCC iter.                  ...        0 min,  0.087 sec
     gradient                   ...        0 min,  0.004 sec
 * total energy  :   -31.5485620 Eh     change       -0.3901083E-03 Eh
   gradient norm :     0.0116688 Eh/α   predicted    -0.7046538E-03 (  80.63%)
   displ. norm   :     0.4874433 α      lambda       -0.8050477E-03
   maximum displ.:     0.2630648 α      in ANC's #1, #4, #3, ...

........................................................................
.............................. CYCLE   17 ..............................
........................................................................

 iter      E             dE          RMSdq      gap      omega  full diag
   1    -32.0639218 -0.320639E+02  0.151E-01    3.56       0.0  T
   2    -32.0639299 -0.808275E-05  0.863E-02    3.57       1.0  T
   3    -32.0639287  0.116457E-05  0.289E-02    3.56       1.0  T
   4    -32.0639313 -0.254081E-05  0.496E-03    3.56       4.0  T
   5    -32.0639312  0.159361E-07  0.301E-03    3.56       6.5  T
   6    -32.0639313 -0.639409E-07  0.115E-03    3.56      17.0  T
   7    -32.0639313 -0.839732E-08  0.331E-04    3.56      59.3  T
   8    -32.0639313 -0.401236E-09  0.126E-04    3.56     155.1  T
   9    -32.0639313 -0.721769E-10  0.572E-05    3.56     342.9  T
  10    -32.0639313 -0.132943E-10  0.262E-05    3.56     748.8  T
  11    -32.0639313 -0.357403E-11  0.705E-06    3.56    2783.2  T
  12    -32.0639313 -0.852651E-13  0.218E-06    3.56    8994.1  T
     SCC iter.                  ...        0 min,  0.075 sec
     gradient                   ...        0 min,  0.002 sec
 * total energy  :   -31.5489997 Eh     change       -0.4376945E-03 Eh
   gradient norm :     0.0124505 Eh/α   predicted    -0.4981659E-03 (  13.82%)
   displ. norm   :     0.1597234 α      lambda       -0.4838111E-03
   maximum displ.:     0.0838614 α      in ANC's #7, #4, #6, ...

........................................................................
.............................. CYCLE   18 ..............................
........................................................................

 iter      E             dE          RMSdq      gap      omega  full diag
   1    -32.0648208 -0.320648E+02  0.656E-02    3.55       0.0  T
   2    -32.0648241 -0.331896E-05  0.347E-02    3.55       1.0  T
   3    -32.0648240  0.122992E-06  0.116E-02    3.55       1.7  T
   4    -32.0648243 -0.334902E-06  0.309E-03    3.55       6.3  T
   5    -32.0648244 -0.544525E-07  0.152E-03    3.55      12.9  T
   6    -32.0648244 -0.181765E-07  0.671E-04    3.55      29.2  T
   7    -32.0648244 -0.255658E-08  0.163E-04    3.55     120.2  T
   8    -32.0648244 -0.976002E-10  0.673E-05    3.55     291.4  T
   9    -32.0648244 -0.249401E-10  0.367E-05    3.55     533.9  T
  10    -32.0648244 -0.330402E-11  0.994E-06    3.55    1972.3  T
  11    -32.0648244 -0.923706E-12  0.466E-06    3.55    4207.7  T
     SCC iter.                  ...        0 min,  0.076 sec
     gradient                   ...        0 min,  0.002 sec
 * total energy  :   -31.5492788 Eh     change       -0.2790789E-03 Eh
   gradient norm :     0.0104465 Eh/α   predicted    -0.2480809E-03 ( -11.11%)
   displ. norm   :     0.3566835 α      lambda       -0.5694139E-03
   maximum displ.:     0.1779781 α      in ANC's #7, #6, #1, ...

........................................................................
.............................. CYCLE   19 ..............................
........................................................................

 iter      E             dE          RMSdq      gap      omega  full diag
   1    -32.0650153 -0.320650E+02  0.990E-02    3.56       0.0  T
   2    -32.0650165 -0.124296E-05  0.575E-02    3.57       1.0  T
   3    -32.0650163  0.238364E-06  0.635E-03    3.57       3.1  T
   4    -32.0650168 -0.490644E-06  0.258E-03    3.57       7.6  T
   5    -32.0650168 -0.610228E-07  0.997E-04    3.57      19.7  T
   6    -32.0650168 -0.706734E-09  0.459E-04    3.57      42.8  T
   7    -32.0650168 -0.258268E-08  0.146E-04    3.57     134.5  T
   8    -32.0650168 -0.122967E-09  0.408E-05    3.57     480.3  T
   9    -32.0650168 -0.788702E-11  0.274E-05    3.57     715.5  T
  10    -32.0650168 -0.125766E-11  0.695E-06    3.57    2821.6  T
  11    -32.0650168 -0.497380E-13  0.234E-06    3.57    8371.3  T
     SCC iter.                  ...        0 min,  0.075 sec
     gradient                   ...        0 min,  0.002 sec
 * total energy  :   -31.5496864 Eh     change       -0.4076502E-03 Eh
   gradient norm :     0.0103459 Eh/α   predicted    -0.3209296E-03 ( -21.27%)
   displ. norm   :     0.3867122 α      lambda       -0.6429360E-03
   maximum displ.:     0.1919506 α      in ANC's #6, #7, #4, ...

........................................................................
.............................. CYCLE   20 ..............................
........................................................................

 iter      E             dE          RMSdq      gap      omega  full diag
   1    -32.0693682 -0.320694E+02  0.101E-01    3.60       0.0  T
   2    -32.0693695 -0.126483E-05  0.598E-02    3.60       1.0  T
   3    -32.0693688  0.729171E-06  0.805E-03    3.60       2.4  T
   4    -32.0693698 -0.106038E-05  0.228E-03    3.60       8.6  T
   5    -32.0693699 -0.275602E-07  0.129E-03    3.60      15.2  T
   6    -32.0693699 -0.130296E-07  0.540E-04    3.60      36.3  T
   7    -32.0693699 -0.229108E-08  0.150E-04    3.60     130.4  T
   8    -32.0693699 -0.520259E-10  0.552E-05    3.60     355.3  T
   9    -32.0693699 -0.326565E-10  0.218E-05    3.60     898.0  T
  10    -32.0693699 -0.167688E-11  0.103E-05    3.60    1899.8  T
  11    -32.0693699 -0.105871E-11  0.422E-06    3.60    4645.3  T
  12    -32.0693699 -0.355271E-13  0.125E-06    3.60   15744.3  T
     SCC iter.                  ...        0 min,  0.082 sec
     gradient                   ...        0 min,  0.003 sec
 * total energy  :   -31.5501098 Eh     change       -0.4234168E-03 Eh
   gradient norm :     0.0102738 Eh/α   predicted    -0.3695433E-03 ( -12.72%)
   displ. norm   :     0.5339685 α      lambda       -0.5968956E-03
   maximum displ.:     0.2706746 α      in ANC's #1, #7, #4, ...
 * RMSD in coord.:     1.2019435 α      energy gain  -0.2445059E-01 Eh

generating ANC from model Hessian ...
Using Lindh-Hessian (1995)
 Shifting diagonal of input Hessian by   9.187960267506760E-003
 Lowest  eigenvalues of input Hessian
    0.000000    0.000000    0.000000    0.000000    0.000000    0.000000
    0.010000    0.010231    0.010712    0.010867    0.011969    0.012435
    0.015232    0.017732    0.018371    0.019392    0.020583    0.024150
 Highest eigenvalues
    1.361273    1.548307    1.575712    1.879861    1.982358    1.999421
 

........................................................................
.............................. CYCLE   21 ..............................
........................................................................

 iter      E             dE          RMSdq      gap      omega  full diag
   1    -32.0644941 -0.320645E+02  0.142E-01    3.58       0.0  T
   2    -32.0644972 -0.310754E-05  0.834E-02    3.59       1.0  T
   3    -32.0644963  0.917123E-06  0.136E-02    3.59       1.4  T
   4    -32.0644978 -0.151464E-05  0.358E-03    3.59       5.5  T
   5    -32.0644978 -0.135617E-07  0.219E-03    3.59       8.9  T
   6    -32.0644979 -0.482543E-07  0.798E-04    3.59      24.6  T
   7    -32.0644979 -0.263935E-08  0.258E-04    3.59      76.2  T
   8    -32.0644979 -0.461242E-09  0.907E-05    3.59     216.2  T
   9    -32.0644979 -0.437836E-10  0.358E-05    3.59     548.5  T
  10    -32.0644979 -0.287770E-11  0.184E-05    3.59    1063.8  T
  11    -32.0644979 -0.278533E-11  0.759E-06    3.59    2584.5  T
  12    -32.0644979 -0.355271E-13  0.151E-06    3.59   12961.0  T
     SCC iter.                  ...        0 min,  0.081 sec
     gradient                   ...        0 min,  0.002 sec
 * total energy  :   -31.5504571 Eh     change       -0.3472834E-03 Eh
   gradient norm :     0.0128155 Eh/α   predicted     0.0000000E+00 (-100.00%)
   displ. norm   :     0.1215302 α      lambda       -0.5936682E-03
   maximum displ.:     0.0797093 α      in ANC's #4, #1, #2, ...

........................................................................
.............................. CYCLE   22 ..............................
........................................................................

 iter      E             dE          RMSdq      gap      omega  full diag
   1    -32.0699957 -0.320700E+02  0.627E-02    3.60       0.0  T
   2    -32.0699989 -0.316506E-05  0.347E-02    3.60       1.0  T
   3    -32.0699988  0.106060E-06  0.101E-02    3.60       1.9  T
   4    -32.0699991 -0.307884E-06  0.455E-03    3.60       4.3  T
   5    -32.0699991 -0.753248E-07  0.210E-03    3.60       9.4  T
   6    -32.0699992 -0.480638E-07  0.532E-04    3.60      36.9  T
   7    -32.0699992 -0.965557E-10  0.170E-04    3.60     115.3  T
   8    -32.0699992 -0.349758E-09  0.609E-05    3.60     322.2  T
   9    -32.0699992 -0.581935E-11  0.271E-05    3.60     724.3  T
  10    -32.0699992 -0.213163E-11  0.924E-06    3.60    2123.2  T
  11    -32.0699992 -0.440536E-12  0.309E-06    3.60    6344.5  T
     SCC iter.                  ...        0 min,  0.079 sec
     gradient                   ...        0 min,  0.002 sec
 * total energy  :   -31.5508587 Eh     change       -0.4015995E-03 Eh
   gradient norm :     0.0037379 Eh/α   predicted    -0.3012188E-03 ( -25.00%)
   displ. norm   :     0.1881130 α      lambda       -0.2903527E-03
   maximum displ.:     0.1351357 α      in ANC's #4, #1, #2, ...

........................................................................
.............................. CYCLE   23 ..............................
........................................................................

 iter      E             dE          RMSdq      gap      omega  full diag
   1    -32.0726485 -0.320726E+02  0.527E-02    3.60       0.0  T
   2    -32.0726492 -0.770304E-06  0.316E-02    3.60       1.0  T
   3    -32.0726490  0.189713E-06  0.441E-03    3.60       4.4  T
   4    -32.0726493 -0.246463E-06  0.295E-03    3.60       6.7  T
   5    -32.0726493 -0.695659E-07  0.835E-04    3.60      23.5  T
   6    -32.0726494 -0.194088E-08  0.335E-04    3.60      58.6  T
   7    -32.0726494 -0.794110E-09  0.143E-04    3.60     137.2  T
   8    -32.0726494 -0.715801E-10  0.501E-05    3.60     391.4  T
   9    -32.0726494 -0.245706E-10  0.275E-05    3.60     713.6  T
  10    -32.0726494 -0.106581E-11  0.454E-06    3.60    4319.2  T
  11    -32.0726494 -0.156319E-12  0.184E-06    3.60   10637.0  T
     SCC iter.                  ...        0 min,  0.077 sec
     gradient                   ...        0 min,  0.002 sec
 * total energy  :   -31.5510931 Eh     change       -0.2343593E-03 Eh
   gradient norm :     0.0029668 Eh/α   predicted    -0.1505278E-03 ( -35.77%)
   displ. norm   :     0.3128329 α      lambda       -0.3533781E-03
   maximum displ.:     0.2141321 α      in ANC's #4, #1, #2, ...

........................................................................
.............................. CYCLE   24 ..............................
........................................................................

 iter      E             dE          RMSdq      gap      omega  full diag
   1    -32.0728479 -0.320728E+02  0.781E-02    3.61       0.0  T
   2    -32.0728496 -0.169036E-05  0.475E-02    3.61       1.0  T
   3    -32.0728492  0.369843E-06  0.106E-02    3.61       1.9  T
   4    -32.0728498 -0.614705E-06  0.294E-03    3.61       6.7  T
   5    -32.0728499 -0.235285E-07  0.136E-03    3.61      14.4  T
   6    -32.0728499 -0.277011E-07  0.561E-04    3.61      35.0  T
   7    -32.0728499 -0.331596E-09  0.125E-04    3.61     156.5  T
   8    -32.0728499 -0.234976E-10  0.562E-05    3.61     349.0  T
   9    -32.0728499 -0.316618E-10  0.196E-05    3.61    1001.1  T
  10    -32.0728499 -0.852651E-12  0.723E-06    3.61    2712.3  T
  11    -32.0728499 -0.156319E-12  0.228E-06    3.61    8601.5  T
     SCC iter.                  ...        0 min,  0.075 sec
     gradient                   ...        0 min,  0.002 sec
 * total energy  :   -31.5514104 Eh     change       -0.3172913E-03 Eh
   gradient norm :     0.0042993 Eh/α   predicted    -0.1939818E-03 ( -38.86%)
   displ. norm   :     0.4362274 α      lambda       -0.4373488E-03
   maximum displ.:     0.2967214 α      in ANC's #4, #1, #2, ...

........................................................................
.............................. CYCLE   25 ..............................
........................................................................

 iter      E             dE          RMSdq      gap      omega  full diag
   1    -32.0701774 -0.320702E+02  0.102E-01    3.61       0.0  T
   2    -32.0701812 -0.380428E-05  0.619E-02    3.61       1.0  T
   3    -32.0701808  0.418598E-06  0.170E-02    3.61       1.2  T
   4    -32.0701818 -0.956383E-06  0.351E-03    3.61       5.6  T
   5    -32.0701818 -0.313342E-09  0.246E-03    3.61       8.0  T
   6    -32.0701818 -0.482633E-07  0.108E-03    3.61      18.1  T
   7    -32.0701818 -0.462671E-08  0.284E-04    3.61      69.1  T
   8    -32.0701818 -0.380709E-10  0.876E-05    3.61     223.8  T
   9    -32.0701818 -0.591811E-10  0.431E-05    3.61     454.8  T
  10    -32.0701818 -0.587619E-11  0.936E-06    3.61    2095.1  T
  11    -32.0701818 -0.248690E-12  0.408E-06    3.61    4807.1  T
     SCC iter.                  ...        0 min,  0.073 sec
     gradient                   ...        0 min,  0.002 sec
 * total energy  :   -31.5517409 Eh     change       -0.3305576E-03 Eh
   gradient norm :     0.0050904 Eh/α   predicted    -0.2602878E-03 ( -21.26%)
   displ. norm   :     0.3102743 α      lambda       -0.2208880E-03
   maximum displ.:     0.2148595 α      in ANC's #4, #1, #2, ...

........................................................................
.............................. CYCLE   26 ..............................
........................................................................

 iter      E             dE          RMSdq      gap      omega  full diag
   1    -32.0686675 -0.320687E+02  0.692E-02    3.61       0.0  T
   2    -32.0686686 -0.110715E-05  0.420E-02    3.61       1.0  T
   3    -32.0686684  0.234667E-06  0.887E-03    3.61       2.2  T
   4    -32.0686688 -0.415610E-06  0.211E-03    3.61       9.3  T
   5    -32.0686688  0.400184E-08  0.160E-03    3.61      12.3  T
   6    -32.0686688 -0.263311E-07  0.648E-04    3.61      30.3  T
   7    -32.0686688 -0.118406E-08  0.138E-04    3.61     142.2  T
   8    -32.0686688 -0.969891E-11  0.587E-05    3.61     333.9  T
   9    -32.0686688 -0.264322E-10  0.277E-05    3.61     707.5  T
  10    -32.0686688 -0.251532E-11  0.570E-06    3.61    3439.2  T
  11    -32.0686688 -0.120792E-12  0.233E-06    3.61    8404.6  T
     SCC iter.                  ...        0 min,  0.074 sec
     gradient                   ...        0 min,  0.002 sec
 * total energy  :   -31.5518856 Eh     change       -0.1446164E-03 Eh
   gradient norm :     0.0070172 Eh/α   predicted    -0.1210905E-03 ( -16.27%)
   displ. norm   :     0.1771028 α      lambda       -0.1784042E-03
   maximum displ.:     0.1199172 α      in ANC's #4, #2, #1, ...

........................................................................
.............................. CYCLE   27 ..............................
........................................................................

 iter      E             dE          RMSdq      gap      omega  full diag
   1    -32.0701473 -0.320701E+02  0.473E-02    3.61       0.0  T
   2    -32.0701477 -0.397069E-06  0.271E-02    3.61       1.0  T
   3    -32.0701475  0.129547E-06  0.518E-03    3.61       3.8  T
   4    -32.0701477 -0.192716E-06  0.147E-03    3.61      13.3  T
   5    -32.0701478 -0.226508E-07  0.557E-04    3.61      35.2  T
   6    -32.0701478 -0.310811E-08  0.294E-04    3.61      66.7  T
   7    -32.0701478 -0.408079E-09  0.765E-05    3.61     256.4  T
   8    -32.0701478 -0.332960E-10  0.299E-05    3.61     655.4  T
   9    -32.0701478 -0.134648E-10  0.119E-05    3.61    1648.3  T
  10    -32.0701478 -0.100897E-11  0.399E-06    3.61    4910.3  T
  11    -32.0701478 -0.213163E-13  0.177E-06    3.61   11102.2  T
     SCC iter.                  ...        0 min,  0.074 sec
     gradient                   ...        0 min,  0.002 sec
 * total energy  :   -31.5520187 Eh     change       -0.1331639E-03 Eh
   gradient norm :     0.0054652 Eh/α   predicted    -0.9200078E-04 ( -30.91%)
   displ. norm   :     0.2536197 α      lambda       -0.1823482E-03
   maximum displ.:     0.1787964 α      in ANC's #4, #1, #2, ...

........................................................................
.............................. CYCLE   28 ..............................
........................................................................

 iter      E             dE          RMSdq      gap      omega  full diag
   1    -32.0714288 -0.320714E+02  0.691E-02    3.61       0.0  T
   2    -32.0714294 -0.632498E-06  0.405E-02    3.61       1.0  T
   3    -32.0714291  0.281738E-06  0.554E-03    3.61       3.5  T
   4    -32.0714295 -0.377399E-06  0.197E-03    3.61      10.0  T
   5    -32.0714295 -0.417021E-07  0.636E-04    3.61      30.8  T
   6    -32.0714295 -0.232140E-08  0.364E-04    3.61      53.9  T
   7    -32.0714295 -0.899043E-09  0.867E-05    3.61     226.3  T
   8    -32.0714295 -0.258211E-10  0.347E-05    3.61     565.5  T
   9    -32.0714295 -0.166338E-10  0.135E-05    3.61    1455.4  T
  10    -32.0714295 -0.923706E-12  0.539E-06    3.61    3640.2  T
  11    -32.0714295 -0.113687E-12  0.230E-06    3.61    8528.9  T
     SCC iter.                  ...        0 min,  0.079 sec
     gradient                   ...        0 min,  0.002 sec
 * total energy  :   -31.5521464 Eh     change       -0.1277027E-03 Eh
   gradient norm :     0.0044188 Eh/α   predicted    -0.9704753E-04 ( -24.01%)
   displ. norm   :     0.1766152 α      lambda       -0.9865320E-04
   maximum displ.:     0.1234439 α      in ANC's #4, #1, #2, ...

........................................................................
.............................. CYCLE   29 ..............................
........................................................................

 iter      E             dE          RMSdq      gap      omega  full diag
   1    -32.0727775 -0.320728E+02  0.458E-02    3.61       0.0  T
   2    -32.0727779 -0.437167E-06  0.262E-02    3.61       1.0  T
   3    -32.0727778  0.111885E-06  0.463E-03    3.61       4.2  T
   4    -32.0727779 -0.126903E-06  0.185E-03    3.61      10.6  T
   5    -32.0727780 -0.544028E-07  0.531E-04    3.61      37.0  T
   6    -32.0727780 -0.201357E-08  0.319E-04    3.61      61.5  T
   7    -32.0727780 -0.414829E-09  0.730E-05    3.61     268.8  T
   8    -32.0727780 -0.159375E-10  0.237E-05    3.61     826.0  T
   9    -32.0727780 -0.455458E-11  0.129E-05    3.61    1517.0  T
  10    -32.0727780 -0.103029E-11  0.321E-06    3.61    6101.1  T
  11    -32.0727780  0.142109E-13  0.109E-06    3.61   18038.3  T
     SCC iter.                  ...        0 min,  0.075 sec
     gradient                   ...        0 min,  0.002 sec
 * total energy  :   -31.5522141 Eh     change       -0.6772588E-04 Eh
   gradient norm :     0.0028596 Eh/α   predicted    -0.5088217E-04 ( -24.87%)
   displ. norm   :     0.2392357 α      lambda       -0.6809807E-04
   maximum displ.:     0.1747079 α      in ANC's #4, #1, #2, ...

........................................................................
.............................. CYCLE   30 ..............................
........................................................................

 iter      E             dE          RMSdq      gap      omega  full diag
   1    -32.0714928 -0.320715E+02  0.559E-02    3.61       0.0  T
   2    -32.0714934 -0.566569E-06  0.331E-02    3.61       1.0  T
   3    -32.0714932  0.194127E-06  0.779E-03    3.61       2.5  T
   4    -32.0714935 -0.309471E-06  0.177E-03    3.61      11.1  T
   5    -32.0714935  0.740583E-08  0.120E-03    3.61      16.3  T
   6    -32.0714935 -0.180483E-07  0.415E-04    3.61      47.2  T
   7    -32.0714935 -0.405677E-09  0.107E-04    3.61     183.6  T
   8    -32.0714935 -0.464695E-11  0.307E-05    3.61     637.9  T
   9    -32.0714935 -0.854072E-11  0.165E-05    3.61    1190.7  T
  10    -32.0714935 -0.611067E-12  0.694E-06    3.61    2827.8  T
  11    -32.0714935 -0.156319E-12  0.132E-06    3.61   14912.7  T
     SCC iter.                  ...        0 min,  0.076 sec
     gradient                   ...        0 min,  0.002 sec
 * total energy  :   -31.5522457 Eh     change       -0.3153888E-04 Eh
   gradient norm :     0.0036906 Eh/α   predicted    -0.3599801E-04 (  14.14%)
   displ. norm   :     0.0757161 α      lambda       -0.6979844E-04
   maximum displ.:     0.0376449 α      in ANC's #10, #9, #4, ...

........................................................................
.............................. CYCLE   31 ..............................
........................................................................

 iter      E             dE          RMSdq      gap      omega  full diag
   1    -32.0731243 -0.320731E+02  0.239E-02    3.61       0.0  T
   2    -32.0731249 -0.525532E-06  0.131E-02    3.61       1.5  T
   3    -32.0731249 -0.124506E-07  0.542E-03    3.61       3.6  T
   4    -32.0731249 -0.344234E-07  0.133E-03    3.61      14.7  T
   5    -32.0731249  0.413678E-09  0.827E-04    3.61      23.7  T
   6    -32.0731249 -0.460551E-08  0.371E-04    3.61      52.8  T
   7    -32.0731249 -0.506063E-09  0.805E-05    3.61     243.7  T
   8    -32.0731249 -0.398188E-10  0.295E-05    3.61     664.8  T
   9    -32.0731249 -0.311928E-11  0.172E-05    3.61    1140.7  T
  10    -32.0731249 -0.618172E-12  0.590E-06    3.61    3325.8  T
  11    -32.0731249 -0.170530E-12  0.137E-06    3.61   14267.8  T
     SCC iter.                  ...        0 min,  0.078 sec
     gradient                   ...        0 min,  0.002 sec
 * total energy  :   -31.5522819 Eh     change       -0.3622167E-04 Eh
   gradient norm :     0.0018500 Eh/α   predicted    -0.3510256E-04 (  -3.09%)
   displ. norm   :     0.1040777 α      lambda       -0.2667908E-04
   maximum displ.:     0.0518273 α      in ANC's #1, #4, #5, ...

........................................................................
.............................. CYCLE   32 ..............................
........................................................................

 iter      E             dE          RMSdq      gap      omega  full diag
   1    -32.0726381 -0.320726E+02  0.256E-02    3.61       0.0  T
   2    -32.0726382 -0.717705E-07  0.150E-02    3.61       1.3  T
   3    -32.0726382  0.116407E-07  0.155E-03    3.61      12.7  T
   4    -32.0726382 -0.249448E-07  0.643E-04    3.61      30.5  T
   5    -32.0726382 -0.375712E-08  0.283E-04    3.61      69.4  T
   6    -32.0726382 -0.185814E-09  0.893E-05    3.61     219.5  T
   7    -32.0726382 -0.449489E-10  0.371E-05    3.61     529.0  T
   8    -32.0726382 -0.391509E-11  0.137E-05    3.61    1427.5  T
   9    -32.0726382 -0.174794E-11  0.772E-06    3.61    2538.8  T
  10    -32.0726382 -0.220268E-12  0.201E-06    3.61    9777.5  T
     SCC iter.                  ...        0 min,  0.079 sec
     gradient                   ...        0 min,  0.002 sec
 * total energy  :   -31.5523125 Eh     change       -0.3059854E-04 Eh
   gradient norm :     0.0019862 Eh/α   predicted    -0.1340701E-04 ( -56.18%)
   displ. norm   :     0.1964431 α      lambda       -0.4863441E-04
   maximum displ.:     0.1009685 α      in ANC's #5, #1, #3, ...

........................................................................
.............................. CYCLE   33 ..............................
........................................................................

 iter      E             dE          RMSdq      gap      omega  full diag
   1    -32.0716334 -0.320716E+02  0.505E-02    3.61       0.0  T
   2    -32.0716338 -0.375971E-06  0.294E-02    3.61       1.0  T
   3    -32.0716337  0.378677E-07  0.506E-03    3.61       3.9  T
   4    -32.0716338 -0.110200E-06  0.107E-03    3.61      18.4  T
   5    -32.0716338 -0.392055E-08  0.601E-04    3.61      32.7  T
   6    -32.0716339 -0.202864E-08  0.298E-04    3.61      65.9  T
   7    -32.0716339 -0.329969E-09  0.758E-05    3.61     258.7  T
   8    -32.0716339 -0.721911E-11  0.253E-05    3.61     775.2  T
   9    -32.0716339 -0.211031E-11  0.131E-05    3.61    1500.8  T
  10    -32.0716339 -0.159872E-11  0.384E-06    3.61    5105.7  T
  11    -32.0716339 -0.113687E-12  0.186E-06    3.61   10529.6  T
     SCC iter.                  ...        0 min,  0.075 sec
     gradient                   ...        0 min,  0.002 sec
 * total energy  :   -31.5523505 Eh     change       -0.3795130E-04 Eh
   gradient norm :     0.0027794 Eh/α   predicted    -0.2473535E-04 ( -34.82%)
   displ. norm   :     0.0580000 α      lambda       -0.2013151E-04
   maximum displ.:     0.0312275 α      in ANC's #3, #1, #10, ...

........................................................................
.............................. CYCLE   34 ..............................
........................................................................

 iter      E             dE          RMSdq      gap      omega  full diag
   1    -32.0721369 -0.320721E+02  0.164E-02    3.61       0.0  T
   2    -32.0721370 -0.930262E-07  0.939E-03    3.61       2.1  T
   3    -32.0721370  0.151018E-07  0.317E-03    3.61       6.2  T
   4    -32.0721370 -0.344738E-07  0.567E-04    3.61      34.6  T
   5    -32.0721370  0.278419E-09  0.316E-04    3.61      62.0  T
   6    -32.0721370 -0.108238E-08  0.161E-04    3.61     121.6  T
   7    -32.0721370 -0.726459E-10  0.334E-05    3.61     587.8  T
   8    -32.0721370 -0.201084E-11  0.118E-05    3.61    1663.7  T
   9    -32.0721370 -0.476064E-12  0.326E-06    3.61    6010.6  T
  10    -32.0721370 -0.710543E-13  0.150E-06    3.61   13072.6  T
     SCC iter.                  ...        0 min,  0.073 sec
     gradient                   ...        0 min,  0.002 sec
 * total energy  :   -31.5523631 Eh     change       -0.1260141E-04 Eh
   gradient norm :     0.0018173 Eh/α   predicted    -0.1010240E-04 ( -19.83%)
   displ. norm   :     0.0785256 α      lambda       -0.1353672E-04
   maximum displ.:     0.0508294 α      in ANC's #1, #3, #10, ...

........................................................................
.............................. CYCLE   35 ..............................
........................................................................

 iter      E             dE          RMSdq      gap      omega  full diag
   1    -32.0729852 -0.320730E+02  0.232E-02    3.61       0.0  T
   2    -32.0729855 -0.276754E-06  0.137E-02    3.61       1.4  T
   3    -32.0729854  0.380976E-07  0.323E-03    3.61       6.1  T
   4    -32.0729855 -0.633666E-07  0.114E-03    3.61      17.2  T
   5    -32.0729855 -0.881598E-08  0.372E-04    3.61      52.7  T
   6    -32.0729855 -0.237824E-08  0.182E-04    3.61     107.6  T
   7    -32.0729855 -0.196131E-09  0.564E-05    3.61     347.7  T
   8    -32.0729855 -0.646594E-11  0.230E-05    3.61     851.3  T
   9    -32.0729855 -0.571987E-11  0.943E-06    3.61    2079.2  T
  10    -32.0729855 -0.866862E-12  0.383E-06    3.61    5125.1  T
     SCC iter.                  ...        0 min,  0.073 sec
     gradient                   ...        0 min,  0.002 sec
 * total energy  :   -31.5523746 Eh     change       -0.1157370E-04 Eh
   gradient norm :     0.0008389 Eh/α   predicted    -0.6789320E-05 ( -41.34%)
   displ. norm   :     0.0896383 α      lambda       -0.7337608E-05
   maximum displ.:     0.0605469 α      in ANC's #1, #4, #3, ...

........................................................................
.............................. CYCLE   36 ..............................
........................................................................

 iter      E             dE          RMSdq      gap      omega  full diag
   1    -32.0726330 -0.320726E+02  0.257E-02    3.62       0.0  T
   2    -32.0726331 -0.990460E-07  0.148E-02    3.62       1.3  T
   3    -32.0726331  0.161550E-08  0.231E-03    3.62       8.5  T
   4    -32.0726331 -0.193235E-07  0.742E-04    3.62      26.4  T
   5    -32.0726331 -0.172378E-08  0.292E-04    3.62      67.1  T
   6    -32.0726331 -0.149804E-08  0.118E-04    3.62     165.8  T
   7    -32.0726331 -0.496385E-10  0.341E-05    3.62     575.0  T
   8    -32.0726331 -0.365219E-11  0.123E-05    3.62    1598.4  T
   9    -32.0726331 -0.122924E-11  0.453E-06    3.62    4325.8  T
  10    -32.0726331 -0.191847E-12  0.182E-06    3.62   10750.0  T
     SCC iter.                  ...        0 min,  0.073 sec
     gradient                   ...        0 min,  0.002 sec
 * total energy  :   -31.5523788 Eh     change       -0.4129736E-05 Eh
   gradient norm :     0.0011372 Eh/α   predicted    -0.3686991E-05 ( -10.72%)
   displ. norm   :     0.0357400 α      lambda       -0.5609417E-05
   maximum displ.:     0.0181068 α      in ANC's #2, #4, #5, ...

........................................................................
.............................. CYCLE   37 ..............................
........................................................................

 iter      E             dE          RMSdq      gap      omega  full diag
   1    -32.0729854 -0.320730E+02  0.119E-02    3.62       0.0  T
   2    -32.0729856 -0.145219E-06  0.704E-03    3.62       2.8  T
   3    -32.0729856  0.435839E-08  0.225E-03    3.62       8.7  T
   4    -32.0729856 -0.137325E-07  0.599E-04    3.62      32.7  T
   5    -32.0729856 -0.158799E-08  0.425E-04    3.62      46.1  T
   6    -32.0729856 -0.177025E-08  0.155E-04    3.62     126.8  T
   7    -32.0729856 -0.431726E-10  0.423E-05    3.62     463.4  T
   8    -32.0729856 -0.528644E-11  0.155E-05    3.62    1261.4  T
   9    -32.0729856 -0.198952E-12  0.895E-06    3.62    2192.3  T
  10    -32.0729856 -0.476064E-12  0.294E-06    3.62    6673.0  T
     SCC iter.                  ...        0 min,  0.073 sec
     gradient                   ...        0 min,  0.002 sec
 * total energy  :   -31.5523822 Eh     change       -0.3438665E-05 Eh
   gradient norm :     0.0011160 Eh/α   predicted    -0.2808527E-05 ( -18.33%)
   displ. norm   :     0.0281579 α      lambda       -0.3455032E-05
   maximum displ.:     0.0233875 α      in ANC's #1, #3, #4, ...

........................................................................
.............................. CYCLE   38 ..............................
........................................................................

 iter      E             dE          RMSdq      gap      omega  full diag
   1    -32.0728942 -0.320729E+02  0.121E-02    3.62       0.0  T
   2    -32.0728942 -0.389915E-07  0.686E-03    3.62       2.9  T
   3    -32.0728942  0.574435E-08  0.116E-03    3.62      16.8  T
   4    -32.0728942 -0.919518E-08  0.574E-04    3.62      34.2  T
   5    -32.0728942 -0.308154E-08  0.151E-04    3.62     130.1  T
   6    -32.0728942 -0.231104E-09  0.651E-05    3.62     301.3  T
   7    -32.0728942 -0.224958E-10  0.265E-05    3.62     738.8  T
   8    -32.0728942 -0.710543E-13  0.684E-06    3.62    2865.3  T
   9    -32.0728942 -0.774492E-12  0.282E-06    3.62    6957.9  T
     SCC iter.                  ...        0 min,  0.072 sec
     gradient                   ...        0 min,  0.002 sec
 * total energy  :   -31.5523860 Eh     change       -0.3775559E-05 Eh
   gradient norm :     0.0006644 Eh/α   predicted    -0.1729315E-05 ( -54.20%)
   displ. norm   :     0.0360149 α      lambda       -0.3344308E-05
   maximum displ.:     0.0222898 α      in ANC's #1, #2, #3, ...

........................................................................
.............................. CYCLE   39 ..............................
........................................................................

 iter      E             dE          RMSdq      gap      omega  full diag
   1    -32.0729975 -0.320730E+02  0.126E-02    3.62       0.0  T
   2    -32.0729975 -0.182078E-07  0.736E-03    3.62       2.7  T
   3    -32.0729975  0.195382E-07  0.131E-03    3.62      15.0  T
   4    -32.0729975 -0.252394E-07  0.283E-04    3.62      69.3  T
   5    -32.0729975 -0.439321E-09  0.126E-04    3.62     155.7  T
   6    -32.0729975 -0.936780E-10  0.700E-05    3.62     280.1  T
   7    -32.0729975 -0.201723E-10  0.235E-05    3.62     835.0  T
   8    -32.0729975  0.284217E-12  0.996E-06    3.62    1968.8  T
   9    -32.0729975 -0.147082E-11  0.301E-06    3.62    6513.4  T
     SCC iter.                  ...        0 min,  0.072 sec
     gradient                   ...        0 min,  0.002 sec
 * total energy  :   -31.5523898 Eh     change       -0.3784982E-05 Eh
   gradient norm :     0.0005535 Eh/α   predicted    -0.1675792E-05 ( -55.73%)
   displ. norm   :     0.0549130 α      lambda       -0.3564525E-05
   maximum displ.:     0.0350000 α      in ANC's #2, #1, #6, ...

........................................................................
.............................. CYCLE   40 ..............................
........................................................................

 iter      E             dE          RMSdq      gap      omega  full diag
   1    -32.0729944 -0.320730E+02  0.181E-02    3.62       0.0  T
   2    -32.0729944 -0.356077E-07  0.105E-02    3.62       1.9  T
   3    -32.0729944  0.158517E-07  0.122E-03    3.62      16.1  T
   4    -32.0729945 -0.175301E-07  0.650E-04    3.62      30.2  T
   5    -32.0729945 -0.735211E-08  0.152E-04    3.62     129.2  T
   6    -32.0729945 -0.446647E-10  0.711E-05    3.62     275.7  T
   7    -32.0729945 -0.220268E-12  0.212E-05    3.62     926.5  T
   8    -32.0729945 -0.726885E-11  0.674E-06    3.62    2909.0  T
   9    -32.0729945 -0.589750E-12  0.231E-06    3.62    8488.5  T
     SCC iter.                  ...        0 min,  0.072 sec
     gradient                   ...        0 min,  0.002 sec
 * total energy  :   -31.5523941 Eh     change       -0.4339523E-05 Eh
   gradient norm :     0.0006554 Eh/α   predicted    -0.1788922E-05 ( -58.78%)
   displ. norm   :     0.0750096 α      lambda       -0.4523014E-05
   maximum displ.:     0.0476398 α      in ANC's #2, #1, #6, ...

........................................................................
.............................. CYCLE   41 ..............................
........................................................................

 iter      E             dE          RMSdq      gap      omega  full diag
   1    -32.0728178 -0.320728E+02  0.252E-02    3.62       0.0  T
   2    -32.0728179 -0.515394E-07  0.147E-02    3.62       1.3  T
   3    -32.0728178  0.421567E-07  0.179E-03    3.62      10.9  T
   4    -32.0728179 -0.535367E-07  0.687E-04    3.62      28.5  T
   5    -32.0728179 -0.607429E-08  0.211E-04    3.62      92.9  T
   6    -32.0728179 -0.190127E-09  0.107E-04    3.62     182.7  T
   7    -32.0728179 -0.179909E-10  0.290E-05    3.62     677.1  T
   8    -32.0728179 -0.117240E-10  0.902E-06    3.62    2175.4  T
   9    -32.0728179 -0.873968E-12  0.387E-06    3.62    5073.0  T
     SCC iter.                  ...        0 min,  0.072 sec
     gradient                   ...        0 min,  0.002 sec
 * total energy  :   -31.5523998 Eh     change       -0.5725507E-05 Eh
   gradient norm :     0.0006049 Eh/α   predicted    -0.2269949E-05 ( -60.35%)
   displ. norm   :     0.1079062 α      lambda       -0.5991287E-05
   maximum displ.:     0.0670566 α      in ANC's #2, #1, #6, ...

........................................................................
.............................. CYCLE   42 ..............................
........................................................................

 iter      E             dE          RMSdq      gap      omega  full diag
   1    -32.0727511 -0.320728E+02  0.370E-02    3.62       0.0  T
   2    -32.0727513 -0.134718E-06  0.216E-02    3.62       1.0  T
   3    -32.0727512  0.376242E-07  0.232E-03    3.62       8.5  T
   4    -32.0727513 -0.549925E-07  0.966E-04    3.62      20.3  T
   5    -32.0727513 -0.124897E-07  0.412E-04    3.62      47.6  T
   6    -32.0727513 -0.207432E-08  0.181E-04    3.62     108.4  T
   7    -32.0727513 -0.471374E-10  0.311E-05    3.62     629.8  T
   8    -32.0727513 -0.898837E-11  0.128E-05    3.62    1537.3  T
   9    -32.0727513 -0.149214E-11  0.566E-06    3.62    3467.6  T
  10    -32.0727513 -0.284217E-12  0.214E-06    3.62    9155.1  T
     SCC iter.                  ...        0 min,  0.084 sec
     gradient                   ...        0 min,  0.002 sec
 * total energy  :   -31.5524072 Eh     change       -0.7371729E-05 Eh
   gradient norm :     0.0005076 Eh/α   predicted    -0.3011900E-05 ( -59.14%)
   displ. norm   :     0.1136136 α      lambda       -0.5785945E-05
   maximum displ.:     0.0745117 α      in ANC's #1, #2, #6, ...
 * RMSD in coord.:     0.4709462 α      energy gain  -0.2297351E-02 Eh

generating ANC from model Hessian ...
Using Lindh-Hessian (1995)
 Shifting diagonal of input Hessian by   9.221947006925375E-003
 Lowest  eigenvalues of input Hessian
    0.000000    0.000000    0.000000    0.000000    0.000000    0.000000
    0.010000    0.010306    0.010784    0.011235    0.011895    0.012543
    0.015473    0.018078    0.018462    0.019481    0.020693    0.024284
 Highest eigenvalues
    1.364114    1.552750    1.575633    1.882497    1.988139    2.004740
 

........................................................................
.............................. CYCLE   43 ..............................
........................................................................

 iter      E             dE          RMSdq      gap      omega  full diag
   1    -32.0726934 -0.320727E+02  0.401E-02    3.63       0.0  T
   2    -32.0726936 -0.150582E-06  0.235E-02    3.63       1.0  T
   3    -32.0726935  0.437344E-07  0.251E-03    3.63       7.8  T
   4    -32.0726936 -0.683772E-07  0.976E-04    3.63      20.1  T
   5    -32.0726936 -0.110283E-07  0.451E-04    3.63      43.5  T
   6    -32.0726936 -0.245229E-08  0.191E-04    3.63     102.5  T
   7    -32.0726936 -0.569642E-10  0.373E-05    3.63     525.7  T
   8    -32.0726936 -0.754596E-11  0.143E-05    3.63    1368.6  T
   9    -32.0726936 -0.257216E-11  0.603E-06    3.63    3254.1  T
  10    -32.0726936 -0.319744E-12  0.231E-06    3.63    8495.0  T
     SCC iter.                  ...        0 min,  0.074 sec
     gradient                   ...        0 min,  0.002 sec
 * total energy  :   -31.5524141 Eh     change       -0.6917952E-05 Eh
   gradient norm :     0.0004932 Eh/α   predicted     0.0000000E+00 (-100.00%)
   displ. norm   :     0.0214676 α      lambda       -0.2952475E-06
   maximum displ.:     0.0189048 α      in ANC's #1, #2, #4, ...

........................................................................
.............................. CYCLE   44 ..............................
........................................................................

 iter      E             dE          RMSdq      gap      omega  full diag
   1    -32.0729511 -0.320730E+02  0.791E-03    3.62       0.0  T
   2    -32.0729511 -0.258609E-07  0.452E-03    3.62       4.3  T
   3    -32.0729511 -0.459885E-09  0.879E-04    3.62      22.3  T
   4    -32.0729511 -0.238990E-08  0.418E-04    3.62      46.9  T
   5    -32.0729511 -0.822197E-09  0.104E-04    3.62     189.1  T
   6    -32.0729511 -0.188003E-09  0.480E-05    3.62     408.2  T
   7    -32.0729511 -0.611067E-11  0.137E-05    3.62    1432.9  T
   8    -32.0729511 -0.270006E-12  0.574E-06    3.62    3417.3  T
   9    -32.0729511 -0.476064E-12  0.110E-06    3.62   17884.4  T
     SCC iter.                  ...        0 min,  0.073 sec
     gradient                   ...        0 min,  0.002 sec
 * total energy  :   -31.5524175 Eh     change       -0.3345650E-05 Eh
   gradient norm :     0.0002878 Eh/α   predicted    -0.1380945E-05 ( -58.72%)
   displ. norm   :     0.0340731 α      lambda       -0.3340984E-05
   maximum displ.:     0.0276726 α      in ANC's #1, #2, #4, ...

........................................................................
.............................. CYCLE   45 ..............................
........................................................................

 iter      E             dE          RMSdq      gap      omega  full diag
   1    -32.0730911 -0.320731E+02  0.104E-02    3.63       0.0  T
   2    -32.0730911 -0.171361E-07  0.606E-03    3.63       3.2  T
   3    -32.0730911  0.137809E-08  0.770E-04    3.63      25.5  T
   4    -32.0730911 -0.425880E-08  0.300E-04    3.63      65.5  T
   5    -32.0730911 -0.601062E-09  0.111E-04    3.63     176.7  T
   6    -32.0730911 -0.158209E-09  0.391E-05    3.63     501.6  T
   7    -32.0730911 -0.244427E-11  0.142E-05    3.63    1377.7  T
   8    -32.0730911 -0.170530E-12  0.538E-06    3.63    3644.2  T
   9    -32.0730911 -0.291323E-12  0.162E-06    3.63   12079.7  T
     SCC iter.                  ...        0 min,  0.073 sec
     gradient                   ...        0 min,  0.002 sec
 * total energy  :   -31.5524217 Eh     change       -0.4266486E-05 Eh
   gradient norm :     0.0005074 Eh/α   predicted    -0.1676076E-05 ( -60.72%)
   displ. norm   :     0.0435083 α      lambda       -0.3696963E-05
   maximum displ.:     0.0344332 α      in ANC's #1, #2, #10, ...

........................................................................
.............................. CYCLE   46 ..............................
........................................................................

 iter      E             dE          RMSdq      gap      omega  full diag
   1    -32.0729925 -0.320730E+02  0.126E-02    3.62       0.0  T
   2    -32.0729925 -0.986405E-08  0.738E-03    3.62       2.7  T
   3    -32.0729925 -0.123127E-08  0.472E-04    3.62      41.6  T
   4    -32.0729925 -0.547857E-09  0.275E-04    3.62      71.3  T
   5    -32.0729925 -0.138566E-08  0.710E-05    3.62     276.2  T
   6    -32.0729925 -0.454037E-11  0.394E-05    3.62     497.6  T
   7    -32.0729925 -0.699885E-11  0.100E-05    3.62    1961.4  T
   8    -32.0729925 -0.540012E-12  0.468E-06    3.62    4189.5  T
     SCC iter.                  ...        0 min,  0.073 sec
     gradient                   ...        0 min,  0.002 sec
 * total energy  :   -31.5524266 Eh     change       -0.4864852E-05 Eh
   gradient norm :     0.0004036 Eh/α   predicted    -0.1857490E-05 ( -61.82%)
   displ. norm   :     0.0438822 α      lambda       -0.3189457E-05
   maximum displ.:     0.0357663 α      in ANC's #1, #2, #10, ...

[...]
         :: total charge              -0.000000000000 e     ::
         :::::::::::::::::::::::::::::::::::::::::::::::::::::

           ------------------------------------------------- 
          |                Numerical Hessian                |
           ------------------------------------------------- 
step length          :   0.00500
SCC accuracy         :   0.30000
Hessian scale factor :   1.00000
frozen atoms in %    :   0.00000    0
RMS gradient         :   0.00005
estimated CPU  time      1.13 min
estimated wall time      0.14 min

writing file <hessian>.

 projected vibrational frequencies (cm⁻¹)
eigval :       -0.00    -0.00    -0.00    -0.00    -0.00     0.00
eigval :       22.00    74.95   108.97   128.78   164.89   176.17
eigval :      217.48   229.43   253.00   261.15   287.65   365.76
eigval :      378.56   409.27   460.75   585.63   643.80   660.26
eigval :      682.61   688.04   736.68   749.28   779.14   876.81
eigval :      900.78   928.43   933.70   968.14   990.99   998.99
eigval :     1017.72  1020.17  1061.12  1080.67  1084.67  1115.32
eigval :     1121.20  1181.52  1202.15  1228.80  1232.71  1247.86
eigval :     1276.36  1283.85  1316.08  1408.80  1410.77  1421.43
eigval :     1442.80  1455.58  1462.86  1497.63  1503.17  1505.45
eigval :     1512.61  1578.19  1588.99  2928.63  2941.89  2948.30
eigval :     2950.98  3008.06  3012.32  3025.32  3031.27  3034.23
eigval :     3042.30  3058.08  3066.87  3073.86  3086.57  3099.74
           -------------------------------------------------
          |                Property Printout                |
           -------------------------------------------------

    * Orbital Energies and Occupations

         #    Occupation            Energy/Eh            Energy/eV
      -------------------------------------------------------------
         1        2.0000           -0.6578019             -17.8997
       ...           ...                  ...                  ...
        18        2.0000           -0.4749452             -12.9239
        19        2.0000           -0.4731639             -12.8754
        20        2.0000           -0.4666563             -12.6984
        21        2.0000           -0.4608867             -12.5414
        22        2.0000           -0.4563740             -12.4186
        23        2.0000           -0.4435581             -12.0698
        24        2.0000           -0.4415050             -12.0140
        25        2.0000           -0.4234871             -11.5237
        26        2.0000           -0.4156419             -11.3102
        27        2.0000           -0.4054939             -11.0341
        28        2.0000           -0.4021774             -10.9438
        29        2.0000           -0.3975572             -10.8181
        30        2.0000           -0.3633933              -9.8884 (HOMO)
        31                         -0.2297111              -6.2508 (LUMO)
        32                         -0.2212332              -6.0201
        33                         -0.1565006              -4.2586
        34                         -0.1500433              -4.0829
        35                         -0.0924871              -2.5167
        36                         -0.0116817              -0.3179
        37                          0.0648598               1.7649
        38                          0.0900161               2.4495
        39                          0.1148722               3.1258
        40                          0.1227124               3.3392
        41                          0.1346024               3.6627
       ...                                ...                  ...
        64                          0.7724360              21.0191
      -------------------------------------------------------------
                  HL-Gap            0.1336823 Eh            3.6377 eV
             Fermi-level           -0.2965522 Eh           -8.0696 eV

     #   Z          covCN         q      C6AA      α(0)
     1  15 P        3.005    -0.118   165.592    23.118
     2   6 C        3.747    -0.048    21.499     6.614
     3   1 H        0.926     0.044     2.399     2.422
     4   1 H        0.926     0.039     2.465     2.455
     5   6 C        3.769    -0.095    22.343     6.736
     6   1 H        0.925     0.039     2.468     2.457
     7   1 H        0.925     0.037     2.495     2.470
     8   1 H        0.925     0.033     2.546     2.495
     9   6 C        2.915     0.010    27.801     8.646
    10   6 C        2.954    -0.033    28.821     8.805
    11   6 C        3.035    -0.031    28.736     8.793
    12   6 C        2.920    -0.031    28.785     8.798
    13   6 C        2.918    -0.030    28.759     8.794
    14   6 C        2.920    -0.030    28.760     8.794
    15   1 H        0.926     0.036     2.503     2.474
    16   1 H        0.925     0.038     2.476     2.461
    17   1 H        0.926     0.027     2.633     2.538
    18   1 H        0.926     0.028     2.613     2.528
    19   1 H        0.926     0.028     2.620     2.531
    20   6 C        3.748    -0.043    21.416     6.601
    21   1 H        0.925     0.046     2.368     2.406
    22   1 H        0.926     0.042     2.425     2.435
    23   6 C        3.808    -0.098    22.369     6.733
    24   1 H        0.925     0.039     2.459     2.452
    25   1 H        0.925     0.041     2.429     2.437
    26   1 H        0.925     0.033     2.546     2.495

 Mol. C6AA /au·bohr⁶  :       7597.488687
 Mol. C8AA /au·bohr⁸  :     202592.562310
 Mol. α(0) /au        :        139.488934


Wiberg/Mayer (AO) data.
largest (>0.10) Wiberg bond orders for each atom

 ---------------------------------------------------------------------------
     #   Z sym  total        # sym  WBO       # sym  WBO       # sym  WBO
 ---------------------------------------------------------------------------
     1  15 P    3.363 --     2 C    1.028     9 C    1.016    20 C    1.012
     2   6 C    3.991 --     1 P    1.028     5 C    1.010     4 H    0.959
                             3 H    0.953
     3   1 H    0.998 --     2 C    0.953
     4   1 H    0.998 --     2 C    0.959
     5   6 C    3.997 --     2 C    1.010     7 H    0.986     8 H    0.983
                             6 H    0.981
     6   1 H    0.999 --     5 C    0.981
     7   1 H    0.999 --     5 C    0.986
     8   1 H    0.999 --     5 C    0.983
     9   6 C    3.982 --    10 C    1.404    11 C    1.393     1 P    1.016
                            14 C    0.106
    10   6 C    3.992 --    12 C    1.442     9 C    1.404    15 H    0.961
                            13 C    0.108
    11   6 C    3.992 --    13 C    1.452     9 C    1.393    16 H    0.962
                            12 C    0.109
    12   6 C    3.992 --    10 C    1.442    14 C    1.439    17 H    0.970
                            11 C    0.109
    13   6 C    3.991 --    11 C    1.452    14 C    1.432    18 H    0.970
                            10 C    0.108
    14   6 C    3.992 --    12 C    1.439    13 C    1.432    19 H    0.971
                             9 C    0.106
    15   1 H    0.999 --    10 C    0.961
    16   1 H    0.999 --    11 C    0.962
    17   1 H    0.999 --    12 C    0.970
    18   1 H    0.999 --    13 C    0.970
    19   1 H    0.999 --    14 C    0.971
    20   6 C    3.996 --    23 C    1.017     1 P    1.012    22 H    0.956
                            21 H    0.953
    21   1 H    0.998 --    20 C    0.953
    22   1 H    0.997 --    20 C    0.956
    23   6 C    3.996 --    20 C    1.017    25 H    0.985    26 H    0.984
                            24 H    0.983
    24   1 H    0.998 --    23 C    0.983
    25   1 H    0.998 --    23 C    0.985
    26   1 H    0.999 --    23 C    0.984
 ---------------------------------------------------------------------------

Topologies differ in total number of bonds
Writing topology from bond orders to xtbtopo.mol

molecular dipole:
                 x           y           z       tot (Debye)
 q only:       -0.075       0.241      -0.210
   full:        0.072       0.403      -0.527       1.696
molecular quadrupole (traceless):
                xx          xy          yy          xz          yz          zz
 q only:       -2.289       1.318      -1.732       0.498      -1.364       4.022
  q+dip:       -0.253       1.531      -8.197      -2.797      -1.631       8.450
   full:       -1.516       1.553      -5.559      -2.260      -1.717       7.074

           -------------------------------------------------
          |                Geometry Summary                 |
           -------------------------------------------------

      molecular mass/u    :      166.2002322
   center of mass at/Å    :        3.1329113       0.0685900      -3.5734722
  moments of inertia/u·Å² :        0.3625177E+03   0.7073752E+03   0.9160386E+03
rotational constants/cm⁻¹ :        0.4650154E-01   0.2383125E-01   0.1840275E-01

 * 23 selected distances

     #   Z          #   Z                                           value/Å
     2   6 C        3   1 H                                       1.0942374
     2   6 C        4   1 H                                       1.0952102
     2   6 C        5   6 C                                       1.5248967 (max)
     5   6 C        6   1 H                                       1.0872502
     5   6 C        7   1 H                                       1.0871883
     5   6 C        8   1 H                                       1.0896010
     9   6 C       10   6 C                                       1.3891166
     9   6 C       11   6 C                                       1.3937275
    10   6 C       12   6 C                                       1.3843536
    11   6 C       13   6 C                                       1.3816287
    12   6 C       14   6 C                                       1.3839586
    13   6 C       14   6 C                                       1.3851435
    10   6 C       15   1 H                                       1.0788922 (min)
    11   6 C       16   1 H                                       1.0817944
    12   6 C       17   1 H                                       1.0810205
    13   6 C       18   1 H                                       1.0806906
    14   6 C       19   1 H                                       1.0802530
    20   6 C       21   1 H                                       1.0923936
    20   6 C       22   1 H                                       1.0938014
    20   6 C       23   6 C                                       1.5216028
    23   6 C       24   1 H                                       1.0881012
    23   6 C       25   1 H                                       1.0883920
    23   6 C       26   1 H                                       1.0890802

 * 2 distinct bonds (by element types)

   Z      Z             #   av. dist./Å        max./Å        min./Å
   1 H    6 C          15     1.0871937     1.0952102     1.0788922
   6 C    6 C           8     1.4205535     1.5248967     1.3816287

           -------------------------------------------------
          |               Frequency Printout                |
           -------------------------------------------------
 projected vibrational frequencies (cm⁻¹)
eigval :       -0.00    -0.00    -0.00    -0.00    -0.00     0.00
eigval :       22.00    74.95   108.97   128.78   164.89   176.17
eigval :      217.48   229.43   253.00   261.15   287.65   365.76
eigval :      378.56   409.27   460.75   585.63   643.80   660.26
eigval :      682.61   688.04   736.68   749.28   779.14   876.81
eigval :      900.78   928.43   933.70   968.14   990.99   998.99
eigval :     1017.72  1020.17  1061.12  1080.67  1084.67  1115.32
eigval :     1121.20  1181.52  1202.15  1228.80  1232.71  1247.86
eigval :     1276.36  1283.85  1316.08  1408.80  1410.77  1421.43
eigval :     1442.80  1455.58  1462.86  1497.63  1503.17  1505.45
eigval :     1512.61  1578.19  1588.99  2928.63  2941.89  2948.30
eigval :     2950.98  3008.06  3012.32  3025.32  3031.27  3034.23
eigval :     3042.30  3058.08  3066.87  3073.86  3086.57  3099.74
 reduced masses (amu)
   1: 12.70   2: 12.14   3: 13.89   4: 12.73   5: 15.66   6: 10.80   7:  9.41   8: 10.60
   9:  7.48  10:  9.72  11: 10.21  12:  8.10  13:  6.56  14:  4.70  15:  8.89  16:  6.19
  17: 11.02  18: 10.26  19: 16.56  20: 17.21  21: 10.95  22: 11.17  23: 15.16  24: 10.54
  25: 13.91  26: 14.55  27:  2.88  28:  5.70  29:  4.71  30:  3.27  31:  3.57  32:  3.97
  33:  3.02  34: 10.90  35:  2.77  36:  3.18  37:  3.80  38:  3.89  39:  9.76  40:  9.44
  41:  8.15  42:  8.30  43:  4.60  44:  1.32  45:  1.88  46:  3.29  47:  3.47  48:  4.17
  49:  3.48  50:  3.93  51: 11.91  52:  2.96  53:  2.92  54:  8.48  55:  2.13  56:  6.74
  57:  3.41  58:  1.54  59:  1.55  60:  1.55  61:  1.56  62: 11.44  63: 11.44  64:  1.95
  65:  1.89  66:  1.54  67:  1.55  68:  1.81  69:  1.87  70:  1.88  71:  1.41  72:  1.90
  73:  1.43  74:  1.79  75:  1.77  76:  1.84  77:  1.90  78:  1.84
 IR intensities (km·mol⁻¹)
   1:  0.04   2:  0.06   3:  0.05   4:  0.06   5:  0.04   6:  0.29   7:  0.14   8:  0.14
   9:  0.43  10:  0.04  11:  0.23  12:  0.19  13:  0.02  14:  0.13  15:  0.36  16:  0.30
  17:  0.37  18:  0.30  19:  1.97  20:  0.78  21:  3.72  22:  0.17  23: 19.55  24:  1.03
  25: 17.16  26: 12.63  27: 28.05  28: 16.88  29: 22.79  30:  0.20  31:  0.21  32:  0.05
  33:  0.04  34:  1.40  35:  4.00  36:  0.94  37:  1.42  38:  3.24  39:  7.44  40:  5.45
  41:  1.46  42:  2.27  43:  0.47  44:  0.01  45:  0.90  46:  0.67  47:  1.75  48: 16.64
  49:  2.20  50:  3.86  51:  0.48  52:  2.34  53:  1.32  54:  1.28  55:  0.25  56:  0.43
  57:  1.69  58:  2.32  59:  2.87  60:  1.70  61:  1.25  62:  0.12  63:  2.90  64: 16.66
  65: 31.08  66: 11.01  67: 20.21  68: 45.56  69: 52.07  70: 27.10  71: 14.66  72: 33.02
  73: 21.61  74: 13.12  75:  8.63  76: 53.94  77: 75.18  78: 19.85
 Raman intensities (Ä⁴*amu⁻¹)
   1:  0.00   2:  0.00   3:  0.00   4:  0.00   5:  0.00   6:  0.00   7:  0.00   8:  0.00
   9:  0.00  10:  0.00  11:  0.00  12:  0.00  13:  0.00  14:  0.00  15:  0.00  16:  0.00
  17:  0.00  18:  0.00  19:  0.00  20:  0.00  21:  0.00  22:  0.00  23:  0.00  24:  0.00
  25:  0.00  26:  0.00  27:  0.00  28:  0.00  29:  0.00  30:  0.00  31:  0.00  32:  0.00
  33:  0.00  34:  0.00  35:  0.00  36:  0.00  37:  0.00  38:  0.00  39:  0.00  40:  0.00
  41:  0.00  42:  0.00  43:  0.00  44:  0.00  45:  0.00  46:  0.00  47:  0.00  48:  0.00
  49:  0.00  50:  0.00  51:  0.00  52:  0.00  53:  0.00  54:  0.00  55:  0.00  56:  0.00
  57:  0.00  58:  0.00  59:  0.00  60:  0.00  61:  0.00  62:  0.00  63:  0.00  64:  0.00
  65:  0.00  66:  0.00  67:  0.00  68:  0.00  69:  0.00  70:  0.00  71:  0.00  72:  0.00
  73:  0.00  74:  0.00  75:  0.00  76:  0.00  77:  0.00  78:  0.00
 output can be read by thermo (or use thermo option).
 writing <g98.out> molden fake output.
 recommended (thermochemical) frequency scaling factor: 1.0
           -------------------------------------------------
          |             Thermodynamic Functions             |
           -------------------------------------------------

Refinement of some symmetry elements was terminated before convergence was reached.
Some symmetry elements may remain unidentified.
Molecule has no symmetry elements
It seems to be the C1 point group
c1  symmetry found (for desy threshold:  0.10E+00) used in thermo

          ...................................................
          :                      SETUP                      :
          :.................................................:
          :  # frequencies                          72      :
          :  # imaginary freq.                       0      :
          :  linear?                             false      :
          :  only rotor calc.                    false      :
          :  symmetry                               c1      :
          :  rotational number                       1      :
          :  scaling factor                  1.0000000      :
          :  rotor cutoff                   50.0000000 cm⁻¹ :
          :  imag. cutoff                  -20.0000000 cm⁻¹ :
          :.................................................:

    mode    ω/cm⁻¹     T·S(HO)/kcal·mol⁻¹    T·S(FR)/kcal·mol⁻¹   T·S(vib)
   ------------------------------------------------------------------------
       1     22.00    -1.92148 (  3.61%)    -1.29937 ( 96.39%)    -1.32186
       2     74.95    -1.19828 ( 83.47%)    -0.93655 ( 16.53%)    -1.15501
       3    108.97    -0.98008 ( 95.76%)    -0.82570 (  4.24%)    -0.97352
       4    128.78    -0.88376 ( 97.78%)    -0.77622 (  2.22%)    -0.88137
       5    164.89    -0.74325 ( 99.16%)    -0.70300 (  0.84%)    -0.74292
       6    176.17    -0.70620 ( 99.36%)    -0.68341 (  0.64%)    -0.70605
       7    217.48    -0.59032 ( 99.72%)    -0.62101 (  0.28%)    -0.59040
       8    229.43    -0.56154 ( 99.77%)    -0.60517 (  0.23%)    -0.56164
       9    253.00    -0.50970 ( 99.85%)    -0.57620 (  0.15%)    -0.50981
      10    261.15    -0.49317 ( 99.87%)    -0.56682 (  0.13%)    -0.49327
      11    287.65    -0.44358 ( 99.91%)    -0.53819 (  0.09%)    -0.44367
   ------------------------------------------------------------------------

   temp. (K)  partition function   enthalpy   heat capacity  entropy
                                   cal/mol     cal/K/mol   cal/K/mol   J/K/mol
 298.15  VIB  0.979E+04             6033.425     39.519     36.312
         ROT  0.117E+07              888.752      2.981     30.749
         INT  0.115E+11             6922.177     42.500     67.061
         TR   0.207E+28             1481.254      4.968     41.214
         TOT                        8403.4310    47.4685   108.2745   453.0207

       T/K    H(0)-H(T)+PV         H(T)/Eh          T*S/Eh         G(T)/Eh
   ------------------------------------------------------------------------
    298.15    0.133917E-01    0.232618E+00    0.514447E-01    0.181173E+00
   ------------------------------------------------------------------------

         :::::::::::::::::::::::::::::::::::::::::::::::::::::
         ::                  THERMODYNAMIC                  ::
         :::::::::::::::::::::::::::::::::::::::::::::::::::::
         :: total free energy         -31.371462398347 Eh   ::
         ::.................................................::
         :: total energy              -31.552635176914 Eh   ::
         :: zero point energy           0.219225789379 Eh   ::
         :: G(RRHO) w/o ZPVE           -0.038053010812 Eh   ::
         :: G(RRHO) contrib.            0.181172778567 Eh   ::
         :::::::::::::::::::::::::::::::::::::::::::::::::::::

optimized geometry written to: xtbopt.xyz


           -------------------------------------------------
          | TOTAL ENERGY              -31.552635176914 Eh   |
          | TOTAL ENTHALPY            -31.320017667772 Eh   |
          | TOTAL FREE ENERGY         -31.371462398347 Eh   |
          | GRADIENT NORM               0.000047157142 Eh/α |
          | HOMO-LUMO GAP               3.637679444647 eV   |
           -------------------------------------------------

------------------------------------------------------------------------
 * finished run on 2025/07/14 at 11:37:07.932     
------------------------------------------------------------------------
 total:
 * wall-time:     0 d,  0 h,  0 min, 17.592 sec
 *  cpu-time:     0 d,  0 h,  3 min, 15.277 sec
 * ratio c/w:    11.100 speedup
 SCF:
 * wall-time:     0 d,  0 h,  0 min,  0.091 sec
 *  cpu-time:     0 d,  0 h,  0 min,  0.958 sec
 * ratio c/w:    10.549 speedup
 ANC optimizer:
 * wall-time:     0 d,  0 h,  0 min, 14.242 sec
 *  cpu-time:     0 d,  0 h,  2 min, 48.640 sec
 * ratio c/w:    11.841 speedup
 analytical hessian:
 * wall-time:     0 d,  0 h,  0 min,  3.249 sec
 *  cpu-time:     0 d,  0 h,  0 min, 25.565 sec
 * ratio c/w:     7.869 speedup

