      -----------------------------------------------------------      
     |                   =====================                   |     
     |                           x T B                           |     
     |                   =====================                   |     
     |                         S. Grimme                         |     
     |          Mulliken Center for Theoretical Chemistry        |     
     |                    University of Bonn                     |     
      -----------------------------------------------------------      

   * xtb version 6.7.0 (08769fc) compiled by 'albert@albert-system' on 2024-03-04

   xtb is free software: you can redistribute it and/or modify it under
   the terms of the GNU Lesser General Public License as published by
   the Free Software Foundation, either version 3 of the License, or
   (at your option) any later version.
   
   xtb is distributed in the hope that it will be useful,
   but WITHOUT ANY WARRANTY; without even the implied warranty of
   MERCHANTABILITY or FITNESS FOR A PARTICULAR PURPOSE.  See the
   GNU Lesser General Public License for more details.
   
   Cite this work as:
   * C. Bannwarth, E. Caldeweyher, S. Ehlert, A. Hansen, P. Pracht,
     J. Seibert, S. Spicher, S. Grimme, WIREs Comput. Mol. Sci., 2020, 11,
     e01493. DOI: 10.1002/wcms.1493
   
   for GFN2-xTB:
   * C. Bannwarth, S. Ehlert and S. Grimme., J. Chem. Theory Comput., 2019,
     15, 1652-1671. DOI: 10.1021/acs.jctc.8b01176
   for GFN1-xTB:
   * S. Grimme, C. Bannwarth, P. Shushkov, J. Chem. Theory Comput., 2017,
     13, 1989-2009. DOI: 10.1021/acs.jctc.7b00118
   for GFN0-xTB:
   * P. Pracht, E. Caldeweyher, S. Ehlert, S. Grimme, ChemRxiv, 2019, preprint.
     DOI: 10.26434/chemrxiv.8326202.v1
   for GFN-FF:
   * S. Spicher and S. Grimme, Angew. Chem. Int. Ed., 2020, 59, 15665-15673.
     DOI: 10.1002/anie.202004239
   
   for ALPB and GBSA implicit solvation:
   * S. Ehlert, M. Stahn, S. Spicher, S. Grimme, J. Chem. Theory Comput.,
     2021, 17, 4250-4261. DOI: 10.1021/acs.jctc.1c00471
   
   for ddCOSMO and CPCM-X implicit solvation:
   * M. Stahn, S. Ehlert, S. Grimme, J. Phys. Chem. A,
     2023, XX, XXXX-XXXX. DOI: 10.1021/acs.jpca.3c04382
   
   for DFT-D4:
   * E. Caldeweyher, C. Bannwarth and S. Grimme, J. Chem. Phys., 2017,
     147, 034112. DOI: 10.1063/1.4993215
   * E. Caldeweyher, S. Ehlert, A. Hansen, H. Neugebauer, S. Spicher,
     C. Bannwarth and S. Grimme, J. Chem. Phys., 2019, 150, 154122.
     DOI: 10.1063/1.5090222
   * E. Caldeweyher, J.-M. Mewes, S. Ehlert and S. Grimme, Phys. Chem. Chem. Phys.
     2020, 22, 8499-8512. DOI: 10.1039/D0CP00502A
   
   for sTDA-xTB:
   * S. Grimme and C. Bannwarth, J. Chem. Phys., 2016, 145, 054103.
     DOI: 10.1063/1.4959605
   
   in the mass-spec context:
   * V. Asgeirsson, C. Bauer and S. Grimme, Chem. Sci., 2017, 8, 4879.
     DOI: 10.1039/c7sc00601b
   * J. Koopman and S. Grimme, ACS Omega 2019, 4, 12, 15120-15133.
     DOI: 10.1021/acsomega.9b02011
   
   for metadynamics refer to:
   * S. Grimme, J. Chem. Theory Comput., 2019, 155, 2847-2862
     DOI: 10.1021/acs.jctc.9b00143
   
   for SPH calculations refer to:
   * S. Spicher and S. Grimme, J. Chem. Theory Comput., 2021, 17, 1701-1714
     DOI: 10.1021/acs.jctc.0c01306
   
   for ONIOM refer to:
   * C. Plett, A. Katbashev, S. Ehlert, S. Grimme, M. Bursch,
     Phys. Chem. Chem. Phys., 2023, 25, 17860-17868. DOI: 10.1039/D3CP02178E
   
   for DIPRO refer to:
   * J. Kohn, N. Gildemeister, S. Grimme, D. Fazzi, A. Hansen,
     J. Chem. Phys., 2023, just accepted.
   
   for PTB refer to:
   * S. Grimme, M. Mueller, A. Hansen, J. Chem. Phys., 2023, 158, 124111.
     DOI: 10.1063/5.0137838
   
   with help from (in alphabetical order)
   P. Atkinson, C. Bannwarth, F. Bohle, G. Brandenburg, E. Caldeweyher
   M. Checinski, S. Dohm, S. Ehlert, S. Ehrlich, I. Gerasimov, C. Hölzer
   A. Katbashev, J. Kohn, J. Koopman, C. Lavigne, S. Lehtola, F. März, M. Müller,
   F. Musil, H. Neugebauer, J. Pisarek, C. Plett, P. Pracht, F. Pultar,
   J. Seibert, P. Shushkov, S. Spicher, M. Stahn, M. Steiner, T. Strunk,
   J. Stückrath, T. Rose, and J. Unsleber
   
 * started run on 2025/07/14 at 11:38:33.527     
   ID    Z sym.   atoms
    1   15 P      1
    2    6 C      2, 5, 9-14, 20, 23
    3    1 H      3, 4, 6-8, 15-19, 21, 22, 24-26

           -------------------------------------------------
          |                Calculation Setup                |
           -------------------------------------------------

          program call               : /home/minenky/programs/xtb/xtb-dist/bin/xtb m1_00_PEt2Ph-PBE0-D3-TZ-uniMM_73.xyz --charge 0 --T --ohess extreme --cycles 5000 --acc 0.01 --iterations 5000
          coordinate file            : m1_00_PEt2Ph-PBE0-D3-TZ-uniMM_73.xyz
          omp threads                :                    12

########################################################################
[WARNING] Please study the warnings concerning your input carefully
-1- prog_main_parseArguments: Unknown option '--T' provided
########################################################################

           -------------------------------------------------
          |                 G F N 2 - x T B                 |
           -------------------------------------------------

        Reference                      10.1021/acs.jctc.8b01176
      * Hamiltonian:
        H0-scaling (s, p, d)           1.850000    2.230000    2.230000
        zeta-weighting                 0.500000
      * Dispersion:
        s8                             2.700000
        a1                             0.520000
        a2                             5.000000
        s9                             5.000000
      * Repulsion:
        kExp                           1.500000    1.000000
        rExp                           1.000000
      * Coulomb:
        alpha                          2.000000
        third order                    shell-resolved
        anisotropic                    true
        a3                             3.000000
        a5                             4.000000
        cn-shift                       1.200000
        cn-exp                         4.000000
        max-rad                        5.000000


          ...................................................
          :                      SETUP                      :
          :.................................................:
          :  # basis functions                  65          :
          :  # atomic orbitals                  64          :
          :  # shells                           38          :
          :  # electrons                        60          :
          :  max. iterations                  5000          :
          :  Hamiltonian                  GFN2-xTB          :
          :  restarted?                      false          :
          :  GBSA solvation                  false          :
          :  PC potential                    false          :
          :  electronic temp.          300.0000000     K    :
          :  accuracy                    0.0100000          :
          :  -> integral cutoff          0.4500000E+02      :
          :  -> integral neglect         0.1000000E-09      :
          :  -> SCF convergence          0.1000000E-07 Eh   :
          :  -> wf. convergence          0.1000000E-05 e    :
          :  Broyden damping             0.4000000          :
          :  net charge                          0          :
          :  unpaired electrons                  0          :
          ...................................................

 iter      E             dE          RMSdq      gap      omega  full diag
   1    -31.9980493 -0.319980E+02  0.352E+00    4.05       0.0  T
   2    -32.0403739 -0.423245E-01  0.210E+00    3.55       1.0  T
   3    -32.0402954  0.784665E-04  0.872E-01    3.27       1.0  T
   4    -32.0412449 -0.949439E-03  0.283E-01    3.30       1.0  T
   5    -32.0424538 -0.120897E-02  0.113E-01    3.34       1.0  T
   6    -32.0426443 -0.190495E-03  0.408E-02    3.33       1.0  T
   7    -32.0426603 -0.159578E-04  0.165E-02    3.33       1.2  T
   8    -32.0426615 -0.122162E-05  0.691E-03    3.33       2.8  T
   9    -32.0426620 -0.542003E-06  0.159E-03    3.33      12.4  T
  10    -32.0426621 -0.399670E-07  0.573E-04    3.33      34.2  T
  11    -32.0426621 -0.186431E-08  0.274E-04    3.33      71.5  T
  12    -32.0426621 -0.453142E-09  0.558E-05    3.33     351.2  T
  13    -32.0426621 -0.493827E-11  0.192E-05    3.33    1019.8  T
  14    -32.0426621 -0.220979E-11  0.857E-06    3.33    2289.1  T
  15    -32.0426621 -0.213163E-12  0.257E-06    3.33    7635.4  T

   *** convergence criteria satisfied after 15 iterations ***

         #    Occupation            Energy/Eh            Energy/eV
      -------------------------------------------------------------
         1        2.0000           -0.6602905             -17.9674
       ...           ...                  ...                  ...
        24        2.0000           -0.4412444             -12.0069
        25        2.0000           -0.4218818             -11.4800
        26        2.0000           -0.4178991             -11.3716
        27        2.0000           -0.4039463             -10.9919
        28        2.0000           -0.3988578             -10.8535
        29        2.0000           -0.3972120             -10.8087
        30        2.0000           -0.3567678              -9.7081 (HOMO)
        31                         -0.2342957              -6.3755 (LUMO)
        32                         -0.2229968              -6.0681
        33                         -0.1548857              -4.2147
        34                         -0.1372822              -3.7356
        35                         -0.0922149              -2.5093
       ...                                ...                  ...
        64                          0.7848880              21.3579
      -------------------------------------------------------------
                  HL-Gap            0.1224722 Eh            3.3326 eV
             Fermi-level           -0.2955317 Eh           -8.0418 eV

 SCC (total)                   0 d,  0 h,  0 min,  0.086 sec
 SCC setup                      ...        0 min,  0.000 sec (  0.144%)
 Dispersion                     ...        0 min,  0.000 sec (  0.147%)
 classical contributions        ...        0 min,  0.000 sec (  0.012%)
 integral evaluation            ...        0 min,  0.002 sec (  2.168%)
 iterations                     ...        0 min,  0.082 sec ( 95.378%)
 molecular gradient             ...        0 min,  0.002 sec (  2.040%)
 printout                       ...        0 min,  0.000 sec (  0.089%)

         :::::::::::::::::::::::::::::::::::::::::::::::::::::
         ::                     SUMMARY                     ::
         :::::::::::::::::::::::::::::::::::::::::::::::::::::
         :: total energy             -31.527149086073 Eh    ::
         :: gradient norm              0.051719421306 Eh/a0 ::
         :: HOMO-LUMO gap              3.332637300966 eV    ::
         ::.................................................::
         :: SCC energy               -32.042386754595 Eh    ::
         :: -> isotropic ES            0.004630763306 Eh    ::
         :: -> anisotropic ES          0.005233586356 Eh    ::
         :: -> anisotropic XC          0.022502124589 Eh    ::
         :: -> dispersion             -0.025462783501 Eh    ::
         :: repulsion energy           0.515237668523 Eh    ::
         :: add. restraining           0.000000000000 Eh    ::
         :: total charge               0.000000000000 e     ::
         :::::::::::::::::::::::::::::::::::::::::::::::::::::

      ----------------------------------------------------------- 
     |                   =====================                   |
     |                        A N C O P T                        |
     |                   =====================                   |
     |               Approximate Normal Coordinate               |
     |                Rational Function Optimizer                |
      ----------------------------------------------------------- 
      ----------------------------------------------------------- 
     |                   =====================                   |
     |                        A N C O P T                        |
     |                   =====================                   |
     |               Approximate Normal Coordinate               |
     |                Rational Function Optimizer                |
      ----------------------------------------------------------- 

          ...................................................
          :                      SETUP                      :
          :.................................................:
          :   optimization level           extreme          :
          :   max. optcycles                  5000          :
          :   ANC micro-cycles                  20          :
          :   degrees of freedom                72          :
          :.................................................:
          :   RF solver                   davidson          :
          :   write xtbopt.log                true          :
          :   linear?                        false          :
          :   energy convergence         0.5000000E-07 Eh   :
          :   grad. convergence          0.5000000E-04 Eh/α :
          :   maxmium RF displ.          1.0000000          :
          :   Hlow (freq-cutoff)         0.1000000E-01      :
          :   Hmax (freq-cutoff)         5.0000000          :
          :   S6 in model hess.         20.0000000          :
          ...................................................

generating ANC from model Hessian ...
Using Lindh-Hessian (1995)
 Shifting diagonal of input Hessian by   9.220109323245644E-003
 Lowest  eigenvalues of input Hessian
    0.000000    0.000000    0.000000    0.000000    0.000000    0.000000
    0.010000    0.010497    0.011031    0.011719    0.012782    0.013350
    0.017218    0.018873    0.019887    0.021512    0.023282    0.026002
 Highest eigenvalues
    1.347581    1.535367    1.562396    1.864066    1.965964    1.986311
 

........................................................................
.............................. CYCLE    1 ..............................
........................................................................

 iter      E             dE          RMSdq      gap      omega  full diag
   1    -32.0426621 -0.320427E+02  0.144E-06    3.33       0.0  T
   2    -32.0426621 -0.497380E-13  0.732E-07    3.33   26775.4  T
   3    -32.0426621  0.497380E-13  0.545E-07    3.33   35977.1  T
     SCC iter.                  ...        0 min,  0.073 sec
     gradient                   ...        0 min,  0.002 sec
 * total energy  :   -31.5271491 Eh     change       -0.7105427E-13 Eh
   gradient norm :     0.0517194 Eh/α   predicted     0.0000000E+00 (-100.00%)
   displ. norm   :     0.6340989 α      lambda       -0.2209559E-01
   maximum displ.:     0.3397981 α      in ANC's #12, #10, #5, ...

........................................................................
.............................. CYCLE    2 ..............................
........................................................................

 iter      E             dE          RMSdq      gap      omega  full diag
   1    -32.0593906 -0.320594E+02  0.363E-01    3.48       0.0  T
   2    -32.0595910 -0.200334E-03  0.180E-01    3.50       1.0  T
   3    -32.0596085 -0.175738E-04  0.630E-02    3.53       1.0  T
   4    -32.0596127 -0.413373E-05  0.278E-02    3.52       1.0  T
   5    -32.0596173 -0.462606E-05  0.117E-02    3.52       1.7  T
   6    -32.0596197 -0.243682E-05  0.384E-03    3.52       5.1  T
   7    -32.0596198 -0.358493E-07  0.135E-03    3.52      14.5  T
   8    -32.0596198 -0.724530E-08  0.451E-04    3.52      43.5  T
   9    -32.0596198 -0.291035E-08  0.174E-04    3.52     112.6  T
  10    -32.0596198 -0.156213E-09  0.684E-05    3.52     286.9  T
  11    -32.0596198 -0.421565E-10  0.265E-05    3.52     740.4  T
  12    -32.0596198 -0.624567E-11  0.104E-05    3.52    1881.4  T
  13    -32.0596198 -0.191847E-12  0.293E-06    3.52    6704.2  T
  14    -32.0596198 -0.355271E-13  0.144E-06    3.52   13658.0  T
     SCC iter.                  ...        0 min,  0.075 sec
     gradient                   ...        0 min,  0.002 sec
 * total energy  :   -31.5398289 Eh     change       -0.1267979E-01 Eh
   gradient norm :     0.0193778 Eh/α   predicted    -0.1548991E-01 (  22.16%)
   displ. norm   :     0.5821049 α      lambda       -0.6702150E-02
   maximum displ.:     0.3381800 α      in ANC's #5, #1, #6, ...

........................................................................
.............................. CYCLE    3 ..............................
........................................................................

 iter      E             dE          RMSdq      gap      omega  full diag
   1    -32.0640119 -0.320640E+02  0.186E-01    3.53       0.0  T
   2    -32.0640431 -0.312173E-04  0.104E-01    3.53       1.0  T
   3    -32.0640365  0.665902E-05  0.316E-02    3.54       1.0  T
   4    -32.0640465 -0.100430E-04  0.121E-02    3.53       1.6  T
   5    -32.0640488 -0.225441E-05  0.336E-03    3.53       5.8  T
   6    -32.0640489 -0.933976E-07  0.157E-03    3.53      12.5  T
   7    -32.0640489 -0.761712E-08  0.622E-04    3.53      31.5  T
   8    -32.0640489 -0.419966E-09  0.283E-04    3.53      69.3  T
   9    -32.0640489 -0.855131E-09  0.104E-04    3.53     189.0  T
  10    -32.0640489 -0.950564E-10  0.444E-05    3.53     441.3  T
  11    -32.0640489 -0.157812E-10  0.165E-05    3.53    1190.1  T
  12    -32.0640489 -0.116529E-11  0.551E-06    3.53    3559.6  T
  13    -32.0640489 -0.781597E-13  0.188E-06    3.53   10430.0  T
     SCC iter.                  ...        0 min,  0.074 sec
     gradient                   ...        0 min,  0.002 sec
 * total energy  :   -31.5446869 Eh     change       -0.4857977E-02 Eh
   gradient norm :     0.0120841 Eh/α   predicted    -0.4486686E-02 (  -7.64%)
   displ. norm   :     0.5456019 α      lambda       -0.3712937E-02
   maximum displ.:     0.3023572 α      in ANC's #5, #4, #1, ...

........................................................................
.............................. CYCLE    4 ..............................
........................................................................

 iter      E             dE          RMSdq      gap      omega  full diag
   1    -32.0628499 -0.320628E+02  0.146E-01    3.53       0.0  T
   2    -32.0628636 -0.137755E-04  0.877E-02    3.52       1.0  T
   3    -32.0628604  0.327284E-05  0.198E-02    3.52       1.0  T
   4    -32.0628651 -0.469610E-05  0.840E-03    3.52       2.3  T
   5    -32.0628659 -0.842742E-06  0.276E-03    3.52       7.1  T
   6    -32.0628660 -0.955234E-07  0.135E-03    3.52      14.6  T
   7    -32.0628660 -0.497636E-08  0.487E-04    3.52      40.3  T
   8    -32.0628660 -0.591555E-09  0.196E-04    3.52      99.9  T
   9    -32.0628660 -0.751548E-09  0.750E-05    3.52     261.5  T
  10    -32.0628660 -0.303260E-10  0.309E-05    3.52     635.0  T
  11    -32.0628660 -0.262901E-11  0.119E-05    3.52    1641.9  T
  12    -32.0628660 -0.753175E-12  0.482E-06    3.52    4072.0  T
  13    -32.0628660 -0.106581E-12  0.206E-06    3.52    9503.1  T
     SCC iter.                  ...        0 min,  0.075 sec
     gradient                   ...        0 min,  0.002 sec
 * total energy  :   -31.5474351 Eh     change       -0.2748232E-02 Eh
   gradient norm :     0.0096972 Eh/α   predicted    -0.2409105E-02 ( -12.34%)
   displ. norm   :     0.5238077 α      lambda       -0.2127858E-02
   maximum displ.:     0.2797627 α      in ANC's #5, #4, #1, ...

........................................................................
.............................. CYCLE    5 ..............................
........................................................................

 iter      E             dE          RMSdq      gap      omega  full diag
   1    -32.0638656 -0.320639E+02  0.131E-01    3.52       0.0  T
   2    -32.0638734 -0.784716E-05  0.764E-02    3.53       1.0  T
   3    -32.0638707  0.278622E-05  0.178E-02    3.53       1.1  T
   4    -32.0638742 -0.353517E-05  0.712E-03    3.53       2.8  T
   5    -32.0638749 -0.735703E-06  0.234E-03    3.53       8.4  T
   6    -32.0638750 -0.728253E-07  0.129E-03    3.53      15.2  T
   7    -32.0638750 -0.575743E-08  0.347E-04    3.53      56.6  T
   8    -32.0638750 -0.191314E-09  0.152E-04    3.53     128.8  T
   9    -32.0638750 -0.326821E-09  0.519E-05    3.53     377.5  T
  10    -32.0638750 -0.154827E-10  0.263E-05    3.53     745.7  T
  11    -32.0638750 -0.218137E-11  0.961E-06    3.53    2040.2  T
  12    -32.0638750 -0.383693E-12  0.313E-06    3.53    6265.6  T
     SCC iter.                  ...        0 min,  0.079 sec
     gradient                   ...        0 min,  0.002 sec
 * total energy  :   -31.5490410 Eh     change       -0.1605883E-02 Eh
   gradient norm :     0.0090535 Eh/α   predicted    -0.1355847E-02 ( -15.57%)
   displ. norm   :     0.5002374 α      lambda       -0.1370060E-02
   maximum displ.:     0.2522598 α      in ANC's #5, #4, #7, ...

........................................................................
.............................. CYCLE    6 ..............................
........................................................................

 iter      E             dE          RMSdq      gap      omega  full diag
   1    -32.0652692 -0.320653E+02  0.140E-01    3.52       0.0  T
   2    -32.0652746 -0.539129E-05  0.809E-02    3.52       1.0  T
   3    -32.0652726  0.198235E-05  0.154E-02    3.52       1.3  T
   4    -32.0652750 -0.241327E-05  0.578E-03    3.52       3.4  T
   5    -32.0652755 -0.482429E-06  0.197E-03    3.52       9.9  T
   6    -32.0652756 -0.497193E-07  0.108E-03    3.52      18.1  T
   7    -32.0652756 -0.696974E-08  0.251E-04    3.52      78.1  T
   8    -32.0652756 -0.505693E-09  0.109E-04    3.52     179.9  T
   9    -32.0652756 -0.987015E-10  0.433E-05    3.52     453.2  T
  10    -32.0652756 -0.344613E-11  0.171E-05    3.52    1146.2  T
  11    -32.0652756 -0.174083E-11  0.596E-06    3.52    3290.6  T
  12    -32.0652756 -0.163425E-12  0.266E-06    3.52    7375.2  T
     SCC iter.                  ...        0 min,  0.075 sec
     gradient                   ...        0 min,  0.002 sec
 * total energy  :   -31.5500852 Eh     change       -0.1044269E-02 Eh
   gradient norm :     0.0080784 Eh/α   predicted    -0.8564578E-03 ( -17.98%)
   displ. norm   :     0.4681927 α      lambda       -0.9740566E-03
   maximum displ.:     0.2263314 α      in ANC's #4, #5, #7, ...

........................................................................
.............................. CYCLE    7 ..............................
........................................................................

 iter      E             dE          RMSdq      gap      omega  full diag
   1    -32.0677340 -0.320677E+02  0.146E-01    3.51       0.0  T
   2    -32.0677398 -0.572880E-05  0.856E-02    3.52       1.0  T
   3    -32.0677376  0.217411E-05  0.159E-02    3.52       1.2  T
   4    -32.0677402 -0.263317E-05  0.600E-03    3.52       3.3  T
   5    -32.0677406 -0.413744E-06  0.227E-03    3.52       8.6  T
   6    -32.0677407 -0.827260E-07  0.106E-03    3.52      18.4  T
   7    -32.0677407 -0.564651E-08  0.271E-04    3.52      72.5  T
   8    -32.0677407 -0.706336E-09  0.822E-05    3.52     238.6  T
   9    -32.0677407 -0.572840E-10  0.345E-05    3.52     568.0  T
  10    -32.0677407 -0.418510E-11  0.146E-05    3.52    1339.8  T
  11    -32.0677407 -0.866862E-12  0.523E-06    3.52    3746.8  T
  12    -32.0677407 -0.284217E-13  0.175E-06    3.52   11215.3  T
     SCC iter.                  ...        0 min,  0.075 sec
     gradient                   ...        0 min,  0.002 sec
 * total energy  :   -31.5508229 Eh     change       -0.7376142E-03 Eh
   gradient norm :     0.0077309 Eh/α   predicted    -0.5937964E-03 ( -19.50%)
   displ. norm   :     0.4336193 α      lambda       -0.7288231E-03
   maximum displ.:     0.1991797 α      in ANC's #4, #3, #2, ...

........................................................................
.............................. CYCLE    8 ..............................
........................................................................

 iter      E             dE          RMSdq      gap      omega  full diag
   1    -32.0700561 -0.320701E+02  0.146E-01    3.52       0.0  T
   2    -32.0700606 -0.449123E-05  0.869E-02    3.52       1.0  T
   3    -32.0700596  0.909508E-06  0.128E-02    3.52       1.5  T
   4    -32.0700611 -0.142292E-05  0.469E-03    3.52       4.2  T
   5    -32.0700612 -0.103520E-06  0.181E-03    3.52      10.8  T
   6    -32.0700612 -0.469777E-07  0.912E-04    3.52      21.5  T
   7    -32.0700612 -0.538826E-08  0.222E-04    3.52      88.4  T
   8    -32.0700612 -0.442952E-09  0.664E-05    3.52     295.3  T
   9    -32.0700612 -0.277680E-10  0.294E-05    3.52     667.6  T
  10    -32.0700612 -0.584066E-11  0.100E-05    3.52    1960.0  T
  11    -32.0700612 -0.440536E-12  0.359E-06    3.52    5467.3  T
  12    -32.0700612 -0.284217E-13  0.124E-06    3.52   15787.1  T
     SCC iter.                  ...        0 min,  0.076 sec
     gradient                   ...        0 min,  0.002 sec
 * total energy  :   -31.5513867 Eh     change       -0.5638339E-03 Eh
   gradient norm :     0.0083849 Eh/α   predicted    -0.4329313E-03 ( -23.22%)
   displ. norm   :     0.4608253 α      lambda       -0.6902434E-03
   maximum displ.:     0.2486434 α      in ANC's #3, #4, #2, ...

........................................................................
.............................. CYCLE    9 ..............................
........................................................................

 iter      E             dE          RMSdq      gap      omega  full diag
   1    -32.0721063 -0.320721E+02  0.155E-01    3.53       0.0  T
   2    -32.0721108 -0.452334E-05  0.927E-02    3.54       1.0  T
   3    -32.0721104  0.482075E-06  0.121E-02    3.54       1.6  T
   4    -32.0721114 -0.102956E-05  0.425E-03    3.54       4.6  T
   5    -32.0721114 -0.419681E-07  0.174E-03    3.54      11.3  T
   6    -32.0721115 -0.134055E-07  0.876E-04    3.54      22.4  T
   7    -32.0721115 -0.331422E-08  0.181E-04    3.54     108.6  T
   8    -32.0721115 -0.298627E-09  0.398E-05    3.54     493.3  T
   9    -32.0721115 -0.606093E-11  0.202E-05    3.54     972.0  T
  10    -32.0721115 -0.142109E-11  0.796E-06    3.54    2462.7  T
  11    -32.0721115 -0.504485E-12  0.295E-06    3.54    6644.3  T
     SCC iter.                  ...        0 min,  0.074 sec
     gradient                   ...        0 min,  0.002 sec
 * total energy  :   -31.5519457 Eh     change       -0.5589801E-03 Eh
   gradient norm :     0.0100614 Eh/α   predicted    -0.4184187E-03 ( -25.15%)
   displ. norm   :     0.5117316 α      lambda       -0.8387243E-03
   maximum displ.:     0.3260836 α      in ANC's #3, #2, #4, ...

........................................................................
.............................. CYCLE   10 ..............................
........................................................................

 iter      E             dE          RMSdq      gap      omega  full diag
   1    -32.0737530 -0.320738E+02  0.178E-01    3.55       0.0  T
   2    -32.0737559 -0.293686E-05  0.104E-01    3.55       1.0  T
   3    -32.0737552  0.723942E-06  0.957E-03    3.55       2.0  T
   4    -32.0737560 -0.862701E-06  0.519E-03    3.55       3.8  T
   5    -32.0737565 -0.437074E-06  0.178E-03    3.55      11.0  T
   6    -32.0737565 -0.225994E-07  0.828E-04    3.55      23.7  T
   7    -32.0737565 -0.116429E-08  0.145E-04    3.55     135.3  T
   8    -32.0737565 -0.318984E-09  0.508E-05    3.55     386.1  T
   9    -32.0737565 -0.246914E-10  0.229E-05    3.55     855.1  T
  10    -32.0737565 -0.120082E-11  0.991E-06    3.55    1979.4  T
  11    -32.0737565 -0.802913E-12  0.321E-06    3.55    6115.9  T
     SCC iter.                  ...        0 min,  0.075 sec
     gradient                   ...        0 min,  0.002 sec
 * total energy  :   -31.5526180 Eh     change       -0.6723707E-03 Eh
   gradient norm :     0.0085452 Eh/α   predicted    -0.5291807E-03 ( -21.30%)
   displ. norm   :     0.6222292 α      lambda       -0.8496660E-03
   maximum displ.:     0.3796868 α      in ANC's #3, #2, #4, ...

........................................................................
.............................. CYCLE   11 ..............................
........................................................................

 iter      E             dE          RMSdq      gap      omega  full diag
   1    -32.0694286 -0.320694E+02  0.190E-01    3.57       0.0  T
   2    -32.0694414 -0.128061E-04  0.109E-01    3.57       1.0  T
   3    -32.0694406  0.728950E-06  0.251E-02    3.57       1.0  T
   4    -32.0694426 -0.195803E-05  0.796E-03    3.57       2.5  T
   5    -32.0694428 -0.182088E-06  0.395E-03    3.57       5.0  T
   6    -32.0694430 -0.179948E-06  0.186E-03    3.57      10.5  T
   7    -32.0694430 -0.121443E-07  0.512E-04    3.57      38.3  T
   8    -32.0694430 -0.554664E-09  0.831E-05    3.57     235.9  T
   9    -32.0694430 -0.376090E-10  0.521E-05    3.57     376.1  T
  10    -32.0694430 -0.213944E-10  0.165E-05    3.57    1190.2  T
  11    -32.0694430 -0.137845E-11  0.758E-06    3.57    2587.6  T
  12    -32.0694430 -0.113687E-12  0.205E-06    3.57    9576.4  T
     SCC iter.                  ...        0 min,  0.076 sec
     gradient                   ...        0 min,  0.002 sec
 * total energy  :   -31.5531148 Eh     change       -0.4967810E-03 Eh
   gradient norm :     0.0143340 Eh/α   predicted    -0.5893200E-03 (  18.63%)
   displ. norm   :     0.4336703 α      lambda       -0.1201602E-02
   maximum displ.:     0.2666841 α      in ANC's #3, #2, #8, ...

........................................................................
.............................. CYCLE   12 ..............................
........................................................................

 iter      E             dE          RMSdq      gap      omega  full diag
   1    -32.0768140 -0.320768E+02  0.162E-01    3.59       0.0  T
   2    -32.0768278 -0.137895E-04  0.868E-02    3.58       1.0  T
   3    -32.0768261  0.172757E-05  0.349E-02    3.58       1.0  T
   4    -32.0768299 -0.386379E-05  0.693E-03    3.58       2.8  T
   5    -32.0768298  0.752437E-07  0.417E-03    3.58       4.7  T
   6    -32.0768301 -0.237825E-06  0.146E-03    3.58      13.5  T
   7    -32.0768301 -0.849983E-08  0.480E-04    3.58      40.9  T
   8    -32.0768301 -0.272181E-09  0.138E-04    3.58     141.8  T
   9    -32.0768301 -0.695337E-10  0.680E-05    3.58     288.6  T
  10    -32.0768301 -0.104308E-10  0.243E-05    3.58     808.2  T
  11    -32.0768301 -0.393641E-11  0.830E-06    3.58    2361.8  T
  12    -32.0768301 -0.518696E-12  0.298E-06    3.58    6578.1  T
     SCC iter.                  ...        0 min,  0.075 sec
     gradient                   ...        0 min,  0.002 sec
 * total energy  :   -31.5534408 Eh     change       -0.3259875E-03 Eh
   gradient norm :     0.0134304 Eh/α   predicted    -0.7137957E-03 ( 118.96%)
   displ. norm   :     0.2645799 α      lambda       -0.6168036E-03
   maximum displ.:     0.1605437 α      in ANC's #2, #3, #4, ...

........................................................................
.............................. CYCLE   13 ..............................
........................................................................

 iter      E             dE          RMSdq      gap      omega  full diag
   1    -32.0715108 -0.320715E+02  0.923E-02    3.58       0.0  T
   2    -32.0715163 -0.553355E-05  0.527E-02    3.59       1.0  T
   3    -32.0715158  0.535486E-06  0.207E-02    3.59       1.0  T
   4    -32.0715173 -0.147076E-05  0.414E-03    3.59       4.7  T
   5    -32.0715173  0.237394E-07  0.243E-03    3.59       8.1  T
   6    -32.0715173 -0.607559E-07  0.104E-03    3.59      18.8  T
   7    -32.0715173 -0.709980E-08  0.388E-04    3.59      50.5  T
   8    -32.0715173 -0.108528E-09  0.112E-04    3.59     174.5  T
   9    -32.0715173 -0.109615E-09  0.446E-05    3.59     439.8  T
  10    -32.0715173 -0.573408E-11  0.133E-05    3.59    1469.2  T
  11    -32.0715173 -0.173372E-11  0.357E-06    3.59    5488.4  T
  12    -32.0715173 -0.852651E-13  0.131E-06    3.59   15023.4  T
     SCC iter.                  ...        0 min,  0.075 sec
     gradient                   ...        0 min,  0.002 sec
 * total energy  :   -31.5537680 Eh     change       -0.3272353E-03 Eh
   gradient norm :     0.0075990 Eh/α   predicted    -0.3299915E-03 (   0.84%)
   displ. norm   :     0.1370309 α      lambda       -0.2756462E-03
   maximum displ.:     0.0946126 α      in ANC's #2, #9, #5, ...

........................................................................
.............................. CYCLE   14 ..............................
........................................................................

 iter      E             dE          RMSdq      gap      omega  full diag
   1    -32.0724585 -0.320725E+02  0.397E-02    3.59       0.0  T
   2    -32.0724594 -0.920676E-06  0.228E-02    3.59       1.0  T
   3    -32.0724591  0.310630E-06  0.633E-03    3.59       3.1  T
   4    -32.0724594 -0.309689E-06  0.279E-03    3.59       7.0  T
   5    -32.0724596 -0.176378E-06  0.891E-04    3.59      22.0  T
   6    -32.0724596 -0.424745E-08  0.392E-04    3.59      50.1  T
   7    -32.0724596 -0.228674E-09  0.101E-04    3.59     193.5  T
   8    -32.0724596 -0.112657E-09  0.389E-05    3.59     504.6  T
   9    -32.0724596 -0.599698E-11  0.154E-05    3.59    1271.9  T
  10    -32.0724596 -0.902389E-12  0.695E-06    3.59    2822.1  T
  11    -32.0724596 -0.270006E-12  0.340E-06    3.59    5766.9  T
     SCC iter.                  ...        0 min,  0.075 sec
     gradient                   ...        0 min,  0.002 sec
 * total energy  :   -31.5539406 Eh     change       -0.1725605E-03 Eh
   gradient norm :     0.0061505 Eh/α   predicted    -0.1404146E-03 ( -18.63%)
   displ. norm   :     0.2532719 α      lambda       -0.3452840E-03
   maximum displ.:     0.2054976 α      in ANC's #2, #9, #10, ...

........................................................................
.............................. CYCLE   15 ..............................
........................................................................

 iter      E             dE          RMSdq      gap      omega  full diag
   1    -32.0754731 -0.320755E+02  0.733E-02    3.58       0.0  T
   2    -32.0754747 -0.152656E-05  0.414E-02    3.58       1.0  T
   3    -32.0754741  0.572567E-06  0.867E-03    3.58       2.3  T
   4    -32.0754746 -0.546054E-06  0.353E-03    3.58       5.5  T
   5    -32.0754749 -0.277658E-06  0.991E-04    3.58      19.8  T
   6    -32.0754749 -0.518057E-08  0.602E-04    3.58      32.6  T
   7    -32.0754749 -0.102036E-08  0.186E-04    3.58     105.6  T
   8    -32.0754749 -0.183533E-10  0.502E-05    3.58     390.4  T
   9    -32.0754749 -0.335376E-10  0.229E-05    3.58     855.7  T
  10    -32.0754749 -0.139977E-11  0.617E-06    3.58    3181.1  T
  11    -32.0754749 -0.149214E-12  0.277E-06    3.58    7084.4  T
     SCC iter.                  ...        0 min,  0.086 sec
     gradient                   ...        0 min,  0.002 sec
 * total energy  :   -31.5541508 Eh     change       -0.2102190E-03 Eh
   gradient norm :     0.0045648 Eh/α   predicted    -0.1837196E-03 ( -12.61%)
   displ. norm   :     0.5069020 α      lambda       -0.3471622E-03
   maximum displ.:     0.3910632 α      in ANC's #2, #3, #4, ...

........................................................................
.............................. CYCLE   16 ..............................
........................................................................

 iter      E             dE          RMSdq      gap      omega  full diag
   1    -32.0703326 -0.320703E+02  0.142E-01    3.58       0.0  T
   2    -32.0703370 -0.437604E-05  0.828E-02    3.59       1.0  T
   3    -32.0703370 -0.318795E-07  0.109E-02    3.59       1.8  T
   4    -32.0703376 -0.521313E-06  0.434E-03    3.59       4.5  T
   5    -32.0703376 -0.539665E-07  0.244E-03    3.59       8.1  T
   6    -32.0703377 -0.522305E-07  0.866E-04    3.59      22.7  T
   7    -32.0703377 -0.463892E-08  0.225E-04    3.59      87.2  T
   8    -32.0703377 -0.248974E-09  0.704E-05    3.59     278.6  T
   9    -32.0703377 -0.330260E-10  0.367E-05    3.59     534.1  T
  10    -32.0703377 -0.122000E-10  0.121E-05    3.59    1617.1  T
  11    -32.0703377 -0.824230E-12  0.309E-06    3.59    6340.1  T
  12    -32.0703377 -0.639488E-13  0.100E-06    3.59   19522.2  T
     SCC iter.                  ...        0 min,  0.080 sec
     gradient                   ...        0 min,  0.002 sec
 * total energy  :   -31.5542829 Eh     change       -0.1321086E-03 Eh
   gradient norm :     0.0105751 Eh/α   predicted    -0.2181866E-03 (  65.16%)
   displ. norm   :     0.1075175 α      lambda       -0.2769013E-03
   maximum displ.:     0.0648610 α      in ANC's #2, #1, #4, ...

........................................................................
.............................. CYCLE   17 ..............................
........................................................................

 iter      E             dE          RMSdq      gap      omega  full diag
   1    -32.0737951 -0.320738E+02  0.462E-02    3.60       0.0  T
   2    -32.0737978 -0.270608E-05  0.259E-02    3.60       1.0  T
   3    -32.0737977  0.144610E-06  0.120E-02    3.60       1.6  T
   4    -32.0737981 -0.445725E-06  0.266E-03    3.60       7.4  T
   5    -32.0737982 -0.327624E-07  0.181E-03    3.60      10.8  T
   6    -32.0737982 -0.248403E-07  0.780E-04    3.60      25.1  T
   7    -32.0737982 -0.138814E-08  0.193E-04    3.60     101.6  T
   8    -32.0737982 -0.595435E-11  0.521E-05    3.60     376.8  T
   9    -32.0737982 -0.321023E-10  0.262E-05    3.60     749.6  T
  10    -32.0737982 -0.817124E-12  0.942E-06    3.60    2080.9  T
  11    -32.0737982 -0.682121E-12  0.357E-06    3.60    5486.8  T
     SCC iter.                  ...        0 min,  0.089 sec
     gradient                   ...        0 min,  0.003 sec
 * total energy  :   -31.5544415 Eh     change       -0.1586191E-03 Eh
   gradient norm :     0.0069844 Eh/α   predicted    -0.1400516E-03 ( -11.71%)
   displ. norm   :     0.2033466 α      lambda       -0.1613172E-03
   maximum displ.:     0.1598600 α      in ANC's #2, #3, #6, ...

........................................................................
.............................. CYCLE   18 ..............................
........................................................................

 iter      E             dE          RMSdq      gap      omega  full diag
   1    -32.0748828 -0.320749E+02  0.614E-02    3.59       0.0  T
   2    -32.0748840 -0.115205E-05  0.359E-02    3.59       1.0  T
   3    -32.0748832  0.768542E-06  0.830E-03    3.59       2.4  T
   4    -32.0748841 -0.929075E-06  0.264E-03    3.59       7.4  T
   5    -32.0748842 -0.936221E-07  0.110E-03    3.59      17.9  T
   6    -32.0748842 -0.165700E-07  0.465E-04    3.59      42.1  T
   7    -32.0748842 -0.238074E-09  0.149E-04    3.59     132.0  T
   8    -32.0748842 -0.405436E-10  0.396E-05    3.59     495.2  T
   9    -32.0748842 -0.153690E-10  0.129E-05    3.59    1525.3  T
  10    -32.0748842 -0.196110E-11  0.552E-06    3.59    3552.4  T
  11    -32.0748842 -0.376588E-12  0.208E-06    3.59    9429.7  T
     SCC iter.                  ...        0 min,  0.088 sec
     gradient                   ...        0 min,  0.004 sec
 * total energy  :   -31.5545615 Eh     change       -0.1199580E-03 Eh
   gradient norm :     0.0040863 Eh/α   predicted    -0.8399602E-04 ( -29.98%)
   displ. norm   :     0.3894644 α      lambda       -0.1981030E-03
   maximum displ.:     0.3135135 α      in ANC's #2, #1, #6, ...

........................................................................
.............................. CYCLE   19 ..............................
........................................................................

 iter      E             dE          RMSdq      gap      omega  full diag
   1    -32.0746781 -0.320747E+02  0.110E-01    3.59       0.0  T
   2    -32.0746796 -0.145394E-05  0.651E-02    3.59       1.0  T
   3    -32.0746785  0.109937E-05  0.981E-03    3.59       2.0  T
   4    -32.0746798 -0.138865E-05  0.329E-03    3.59       6.0  T
   5    -32.0746799 -0.981254E-07  0.158E-03    3.59      12.4  T
   6    -32.0746800 -0.136260E-07  0.691E-04    3.59      28.4  T
   7    -32.0746800 -0.119009E-08  0.131E-04    3.59     149.7  T
   8    -32.0746800 -0.867928E-10  0.472E-05    3.59     415.9  T
   9    -32.0746800 -0.107505E-10  0.258E-05    3.59     761.4  T
  10    -32.0746800 -0.331823E-11  0.700E-06    3.59    2799.9  T
  11    -32.0746800 -0.120792E-12  0.217E-06    3.59    9024.5  T
     SCC iter.                  ...        0 min,  0.081 sec
     gradient                   ...        0 min,  0.002 sec
 * total energy  :   -31.5546932 Eh     change       -0.1317070E-03 Eh
   gradient norm :     0.0039640 Eh/α   predicted    -0.1140782E-03 ( -13.38%)
   displ. norm   :     0.2257270 α      lambda       -0.1109821E-03
   maximum displ.:     0.1781879 α      in ANC's #2, #1, #4, ...

........................................................................
.............................. CYCLE   20 ..............................
........................................................................

 iter      E             dE          RMSdq      gap      omega  full diag
   1    -32.0756514 -0.320757E+02  0.647E-02    3.60       0.0  T
   2    -32.0756523 -0.888174E-06  0.378E-02    3.60       1.0  T
   3    -32.0756523  0.467841E-07  0.527E-03    3.60       3.7  T
   4    -32.0756524 -0.148637E-06  0.186E-03    3.60      10.6  T
   5    -32.0756524 -0.192354E-07  0.913E-04    3.60      21.5  T
   6    -32.0756524 -0.822348E-08  0.418E-04    3.60      46.9  T
   7    -32.0756524 -0.337629E-09  0.961E-05    3.60     204.1  T
   8    -32.0756524 -0.489777E-10  0.318E-05    3.60     617.1  T
   9    -32.0756524 -0.157669E-10  0.120E-05    3.60    1633.2  T
  10    -32.0756524 -0.161293E-11  0.566E-06    3.60    3468.0  T
  11    -32.0756524 -0.355271E-13  0.164E-06    3.60   11948.9  T
     SCC iter.                  ...        0 min,  0.076 sec
     gradient                   ...        0 min,  0.002 sec
 * total energy  :   -31.5547668 Eh     change       -0.7355236E-04 Eh
   gradient norm :     0.0039095 Eh/α   predicted    -0.5832104E-04 ( -20.71%)
   displ. norm   :     0.2394216 α      lambda       -0.8959679E-04
   maximum displ.:     0.1907396 α      in ANC's #2, #4, #1, ...
 * RMSD in coord.:     1.1573374 α      energy gain  -0.2761768E-01 Eh

generating ANC from model Hessian ...
Using Lindh-Hessian (1995)
 Shifting diagonal of input Hessian by   9.223733855616376E-003
 Lowest  eigenvalues of input Hessian
    0.000000    0.000000    0.000000    0.000000    0.000000    0.000000
    0.010000    0.010403    0.010547    0.011150    0.012243    0.012600
    0.015258    0.017170    0.018574    0.019395    0.023904    0.024335
 Highest eigenvalues
    1.362378    1.550484    1.574637    1.880075    1.986248    2.002630
 

........................................................................
.............................. CYCLE   21 ..............................
........................................................................

 iter      E             dE          RMSdq      gap      omega  full diag
   1    -32.0755086 -0.320755E+02  0.680E-02    3.60       0.0  T
   2    -32.0755091 -0.482570E-06  0.402E-02    3.60       1.0  T
   3    -32.0755090  0.694526E-07  0.468E-03    3.60       4.2  T
   4    -32.0755092 -0.175868E-06  0.136E-03    3.60      14.5  T
   5    -32.0755092 -0.479423E-08  0.739E-04    3.60      26.5  T
   6    -32.0755092 -0.422556E-08  0.327E-04    3.60      59.9  T
   7    -32.0755092 -0.287621E-09  0.800E-05    3.60     245.2  T
   8    -32.0755092 -0.242792E-10  0.246E-05    3.60     798.4  T
   9    -32.0755092 -0.412115E-12  0.111E-05    3.60    1771.4  T
  10    -32.0755092 -0.145661E-11  0.380E-06    3.60    5157.5  T
  11    -32.0755092 -0.177636E-12  0.145E-06    3.60   13534.6  T
     SCC iter.                  ...        0 min,  0.075 sec
     gradient                   ...        0 min,  0.002 sec
 * total energy  :   -31.5548345 Eh     change       -0.6772521E-04 Eh
   gradient norm :     0.0030413 Eh/α   predicted     0.0000000E+00 (-100.00%)
   displ. norm   :     0.0599848 α      lambda       -0.7226963E-04
   maximum displ.:     0.0346293 α      in ANC's #2, #8, #10, ...

........................................................................
.............................. CYCLE   22 ..............................
........................................................................

 iter      E             dE          RMSdq      gap      omega  full diag
   1    -32.0758705 -0.320759E+02  0.230E-02    3.61       0.0  T
   2    -32.0758707 -0.175776E-06  0.133E-02    3.61       1.5  T
   3    -32.0758706  0.465200E-07  0.258E-03    3.61       7.6  T
   4    -32.0758707 -0.503619E-07  0.134E-03    3.61      14.6  T
   5    -32.0758707 -0.281371E-07  0.382E-04    3.61      51.3  T
   6    -32.0758707 -0.966473E-09  0.169E-04    3.61     115.9  T
   7    -32.0758707 -0.991918E-10  0.819E-05    3.61     239.4  T
   8    -32.0758707 -0.450768E-10  0.211E-05    3.61     928.3  T
   9    -32.0758707 -0.334666E-11  0.719E-06    3.61    2728.6  T
  10    -32.0758707 -0.632383E-12  0.257E-06    3.61    7624.5  T
     SCC iter.                  ...        0 min,  0.075 sec
     gradient                   ...        0 min,  0.002 sec
 * total energy  :   -31.5548894 Eh     change       -0.5486198E-04 Eh
   gradient norm :     0.0011121 Eh/α   predicted    -0.3635259E-04 ( -33.74%)
   displ. norm   :     0.1654787 α      lambda       -0.7104502E-04
   maximum displ.:     0.1014617 α      in ANC's #2, #8, #3, ...

........................................................................
.............................. CYCLE   23 ..............................
........................................................................

 iter      E             dE          RMSdq      gap      omega  full diag
   1    -32.0759717 -0.320760E+02  0.551E-02    3.61       0.0  T
   2    -32.0759721 -0.401599E-06  0.320E-02    3.61       1.0  T
   3    -32.0759718  0.294815E-06  0.502E-03    3.61       3.9  T
   4    -32.0759721 -0.365744E-06  0.166E-03    3.61      11.8  T
   5    -32.0759722 -0.419429E-07  0.671E-04    3.61      29.2  T
   6    -32.0759722 -0.133016E-08  0.206E-04    3.61      95.3  T
   7    -32.0759722 -0.576151E-09  0.573E-05    3.61     342.2  T
   8    -32.0759722 -0.203784E-10  0.325E-05    3.61     604.4  T
   9    -32.0759722 -0.318323E-11  0.102E-05    3.61    1919.3  T
  10    -32.0759722 -0.568434E-12  0.354E-06    3.61    5534.0  T
  11    -32.0759722 -0.852651E-13  0.160E-06    3.61   12277.4  T
     SCC iter.                  ...        0 min,  0.075 sec
     gradient                   ...        0 min,  0.002 sec
 * total energy  :   -31.5549458 Eh     change       -0.5648602E-04 Eh
   gradient norm :     0.0023039 Eh/α   predicted    -0.3595855E-04 ( -36.34%)
   displ. norm   :     0.0572743 α      lambda       -0.2714269E-04
   maximum displ.:     0.0373149 α      in ANC's #2, #3, #1, ...

........................................................................
.............................. CYCLE   24 ..............................
........................................................................

 iter      E             dE          RMSdq      gap      omega  full diag
   1    -32.0758704 -0.320759E+02  0.214E-02    3.61       0.0  T
   2    -32.0758705 -0.642351E-07  0.124E-02    3.62       1.6  T
   3    -32.0758705  0.157242E-07  0.181E-03    3.62      10.9  T
   4    -32.0758705 -0.243745E-07  0.703E-04    3.62      27.9  T
   5    -32.0758705 -0.422412E-08  0.250E-04    3.62      78.4  T
   6    -32.0758705 -0.642487E-09  0.964E-05    3.62     203.5  T
   7    -32.0758705 -0.211386E-10  0.319E-05    3.62     614.1  T
   8    -32.0758705 -0.125056E-11  0.130E-05    3.62    1504.7  T
   9    -32.0758705 -0.335376E-11  0.453E-06    3.62    4325.7  T
  10    -32.0758705 -0.994760E-13  0.202E-06    3.62    9691.8  T
     SCC iter.                  ...        0 min,  0.076 sec
     gradient                   ...        0 min,  0.002 sec
 * total energy  :   -31.5549704 Eh     change       -0.2454513E-04 Eh
   gradient norm :     0.0018263 Eh/α   predicted    -0.1361759E-04 ( -44.52%)
   displ. norm   :     0.2443754 α      lambda       -0.7241679E-04
   maximum displ.:     0.1500962 α      in ANC's #2, #3, #1, ...

........................................................................
.............................. CYCLE   25 ..............................
........................................................................

 iter      E             dE          RMSdq      gap      omega  full diag
   1    -32.0754865 -0.320755E+02  0.880E-02    3.61       0.0  T
   2    -32.0754874 -0.917327E-06  0.516E-02    3.62       1.0  T
   3    -32.0754871  0.308165E-06  0.630E-03    3.61       3.1  T
   4    -32.0754875 -0.417671E-06  0.248E-03    3.62       7.9  T
   5    -32.0754876 -0.739299E-07  0.957E-04    3.62      20.5  T
   6    -32.0754876 -0.544156E-08  0.411E-04    3.62      47.8  T
   7    -32.0754876 -0.977565E-10  0.133E-04    3.62     147.7  T
   8    -32.0754876 -0.250658E-09  0.495E-05    3.62     396.6  T
   9    -32.0754876 -0.228866E-10  0.223E-05    3.62     880.2  T
  10    -32.0754876 -0.682121E-12  0.729E-06    3.62    2690.8  T
  11    -32.0754876 -0.142109E-12  0.178E-06    3.62   11036.1  T
     SCC iter.                  ...        0 min,  0.075 sec
     gradient                   ...        0 min,  0.002 sec
 * total energy  :   -31.5550402 Eh     change       -0.6981957E-04 Eh
   gradient norm :     0.0015144 Eh/α   predicted    -0.3718722E-04 ( -46.74%)
   displ. norm   :     0.1780038 α      lambda       -0.2942706E-04
   maximum displ.:     0.1091762 α      in ANC's #2, #3, #1, ...

........................................................................
.............................. CYCLE   26 ..............................
........................................................................

 iter      E             dE          RMSdq      gap      omega  full diag
   1    -32.0754477 -0.320754E+02  0.658E-02    3.62       0.0  T
   2    -32.0754482 -0.468294E-06  0.382E-02    3.63       1.0  T
   3    -32.0754480  0.175869E-06  0.493E-03    3.63       4.0  T
   4    -32.0754482 -0.245577E-06  0.195E-03    3.63      10.1  T
   5    -32.0754483 -0.364574E-07  0.665E-04    3.63      29.5  T
   6    -32.0754483 -0.425195E-08  0.260E-04    3.63      75.4  T
   7    -32.0754483 -0.105516E-09  0.810E-05    3.63     242.2  T
   8    -32.0754483 -0.459508E-10  0.337E-05    3.63     582.3  T
   9    -32.0754483 -0.241798E-10  0.105E-05    3.63    1875.1  T
  10    -32.0754483 -0.447642E-12  0.448E-06    3.63    4380.6  T
  11    -32.0754483 -0.923706E-13  0.160E-06    3.63   12236.6  T
     SCC iter.                  ...        0 min,  0.076 sec
     gradient                   ...        0 min,  0.002 sec
 * total energy  :   -31.5550732 Eh     change       -0.3300235E-04 Eh
   gradient norm :     0.0014399 Eh/α   predicted    -0.1492128E-04 ( -54.79%)
   displ. norm   :     0.2106751 α      lambda       -0.3286466E-04
   maximum displ.:     0.1261944 α      in ANC's #2, #3, #1, ...

........................................................................
.............................. CYCLE   27 ..............................
........................................................................

 iter      E             dE          RMSdq      gap      omega  full diag
   1    -32.0758615 -0.320759E+02  0.743E-02    3.62       0.0  T
   2    -32.0758621 -0.591207E-06  0.433E-02    3.63       1.0  T
   3    -32.0758619  0.155288E-06  0.487E-03    3.63       4.0  T
   4    -32.0758621 -0.227259E-06  0.190E-03    3.63      10.3  T
   5    -32.0758622 -0.473890E-07  0.619E-04    3.63      31.7  T
   6    -32.0758622 -0.428103E-08  0.310E-04    3.63      63.2  T
   7    -32.0758622 -0.108784E-09  0.565E-05    3.63     347.2  T
   8    -32.0758622 -0.250893E-10  0.202E-05    3.63     968.6  T
   9    -32.0758622 -0.307665E-11  0.943E-06    3.63    2080.2  T
  10    -32.0758622 -0.128608E-11  0.433E-06    3.63    4531.3  T
     SCC iter.                  ...        0 min,  0.074 sec
     gradient                   ...        0 min,  0.002 sec
 * total energy  :   -31.5551133 Eh     change       -0.4008526E-04 Eh
   gradient norm :     0.0010436 Eh/α   predicted    -0.1675751E-04 ( -58.20%)
   displ. norm   :     0.3961175 α      lambda       -0.5918920E-04
   maximum displ.:     0.2288046 α      in ANC's #2, #3, #1, ...

........................................................................
.............................. CYCLE   28 ..............................
........................................................................

 iter      E             dE          RMSdq      gap      omega  full diag
   1    -32.0753674 -0.320754E+02  0.141E-01    3.63       0.0  T
   2    -32.0753690 -0.161841E-05  0.825E-02    3.63       1.0  T
   3    -32.0753684  0.625813E-06  0.914E-03    3.63       2.1  T
   4    -32.0753693 -0.948875E-06  0.299E-03    3.63       6.6  T
   5    -32.0753694 -0.725580E-07  0.125E-03    3.63      15.7  T
   6    -32.0753694 -0.185740E-07  0.608E-04    3.63      32.3  T
   7    -32.0753694 -0.619231E-09  0.954E-05    3.63     205.6  T
   8    -32.0753694 -0.323510E-10  0.325E-05    3.63     603.6  T
   9    -32.0753694 -0.263611E-11  0.148E-05    3.63    1327.4  T
  10    -32.0753694 -0.139266E-11  0.558E-06    3.63    3511.7  T
  11    -32.0753694 -0.206057E-12  0.206E-06    3.63    9531.2  T
     SCC iter.                  ...        0 min,  0.075 sec
     gradient                   ...        0 min,  0.002 sec
 * total energy  :   -31.5551877 Eh     change       -0.7437359E-04 Eh
   gradient norm :     0.0019488 Eh/α   predicted    -0.3165924E-04 ( -57.43%)
   displ. norm   :     0.6685331 α      lambda       -0.1011291E-03
   maximum displ.:     0.3731338 α      in ANC's #2, #3, #1, ...

........................................................................
.............................. CYCLE   29 ..............................
........................................................................

 iter      E             dE          RMSdq      gap      omega  full diag
   1    -32.0718582 -0.320719E+02  0.235E-01    3.62       0.0  T
   2    -32.0718629 -0.468271E-05  0.137E-01    3.63       1.0  T
   3    -32.0718616  0.125574E-05  0.145E-02    3.63       1.4  T
   4    -32.0718637 -0.210429E-05  0.485E-03    3.63       4.0  T
   5    -32.0718640 -0.214464E-06  0.205E-03    3.63       9.6  T
   6    -32.0718640 -0.494285E-07  0.102E-03    3.63      19.3  T
   7    -32.0718640 -0.241258E-08  0.229E-04    3.63      85.5  T
   8    -32.0718640 -0.401172E-10  0.534E-05    3.63     366.9  T
   9    -32.0718640 -0.681410E-11  0.226E-05    3.63     869.1  T
  10    -32.0718640 -0.401457E-11  0.673E-06    3.63    2914.6  T
  11    -32.0718640 -0.184741E-12  0.296E-06    3.63    6624.6  T
     SCC iter.                  ...        0 min,  0.075 sec
     gradient                   ...        0 min,  0.002 sec
 * total energy  :   -31.5552726 Eh     change       -0.8489475E-04 Eh
   gradient norm :     0.0063975 Eh/α   predicted    -0.6061280E-04 ( -28.60%)
   displ. norm   :     0.1126395 α      lambda       -0.9790879E-04
   maximum displ.:     0.0617201 α      in ANC's #1, #4, #10, ...

........................................................................
.............................. CYCLE   30 ..............................
........................................................................

 iter      E             dE          RMSdq      gap      omega  full diag
   1    -32.0749177 -0.320749E+02  0.384E-02    3.63       0.0  T
   2    -32.0749181 -0.393128E-06  0.225E-02    3.63       1.0  T
   3    -32.0749180  0.107924E-06  0.489E-03    3.64       4.0  T
   4    -32.0749182 -0.174476E-06  0.112E-03    3.63      17.5  T
   5    -32.0749182 -0.711204E-09  0.687E-04    3.64      28.5  T
   6    -32.0749182 -0.278409E-08  0.299E-04    3.63      65.6  T
   7    -32.0749182 -0.359314E-09  0.742E-05    3.63     264.2  T
   8    -32.0749182 -0.553513E-11  0.197E-05    3.63     993.3  T
   9    -32.0749182 -0.378009E-11  0.848E-06    3.63    2313.1  T
  10    -32.0749182 -0.781597E-13  0.152E-06    3.63   12918.6  T
     SCC iter.                  ...        0 min,  0.074 sec
     gradient                   ...        0 min,  0.002 sec
 * total energy  :   -31.5553411 Eh     change       -0.6855925E-04 Eh
   gradient norm :     0.0044459 Eh/α   predicted    -0.4957954E-04 ( -27.68%)
   displ. norm   :     0.3066650 α      lambda       -0.1031025E-03
   maximum displ.:     0.1666906 α      in ANC's #1, #2, #3, ...

........................................................................
.............................. CYCLE   31 ..............................
........................................................................

 iter      E             dE          RMSdq      gap      omega  full diag
   1    -32.0756343 -0.320756E+02  0.109E-01    3.63       0.0  T
   2    -32.0756352 -0.874764E-06  0.641E-02    3.64       1.0  T
   3    -32.0756350  0.215932E-06  0.649E-03    3.64       3.0  T
   4    -32.0756354 -0.421876E-06  0.225E-03    3.64       8.7  T
   5    -32.0756354 -0.209865E-07  0.116E-03    3.64      17.0  T
   6    -32.0756354 -0.109557E-07  0.484E-04    3.64      40.5  T
   7    -32.0756354 -0.423910E-09  0.983E-05    3.64     199.5  T
   8    -32.0756354 -0.536389E-10  0.366E-05    3.64     535.7  T
   9    -32.0756354 -0.300560E-11  0.187E-05    3.64    1048.9  T
  10    -32.0756354 -0.306244E-11  0.633E-06    3.64    3100.2  T
  11    -32.0756354 -0.177636E-12  0.177E-06    3.64   11065.5  T
     SCC iter.                  ...        0 min,  0.074 sec
     gradient                   ...        0 min,  0.002 sec
 * total energy  :   -31.5554185 Eh     change       -0.7742477E-04 Eh
   gradient norm :     0.0022735 Eh/α   predicted    -0.5640189E-04 ( -27.15%)
   displ. norm   :     0.4678150 α      lambda       -0.8622352E-04
   maximum displ.:     0.2556392 α      in ANC's #1, #2, #3, ...

........................................................................
.............................. CYCLE   32 ..............................
........................................................................

 iter      E             dE          RMSdq      gap      omega  full diag
   1    -32.0732366 -0.320732E+02  0.167E-01    3.63       0.0  T
   2    -32.0732388 -0.216025E-05  0.980E-02    3.63       1.0  T
   3    -32.0732383  0.496193E-06  0.103E-02    3.63       1.9  T
   4    -32.0732392 -0.950808E-06  0.323E-03    3.63       6.1  T
   5    -32.0732393 -0.645443E-07  0.148E-03    3.63      13.3  T
   6    -32.0732393 -0.229035E-07  0.730E-04    3.63      26.9  T
   7    -32.0732393 -0.131160E-08  0.156E-04    3.63     125.6  T
   8    -32.0732393 -0.669473E-10  0.606E-05    3.63     323.4  T
   9    -32.0732393 -0.723617E-10  0.243E-05    3.63     807.7  T
  10    -32.0732393 -0.181899E-11  0.673E-06    3.63    2914.8  T
  11    -32.0732393 -0.241585E-12  0.292E-06    3.63    6720.0  T
     SCC iter.                  ...        0 min,  0.075 sec
     gradient                   ...        0 min,  0.002 sec
 * total energy  :   -31.5554665 Eh     change       -0.4798200E-04 Eh
   gradient norm :     0.0043656 Eh/α   predicted    -0.5254672E-04 (   9.51%)
   displ. norm   :     0.1547833 α      lambda       -0.8589262E-04
   maximum displ.:     0.1058428 α      in ANC's #1, #2, #4, ...

........................................................................
.............................. CYCLE   33 ..............................
........................................................................

 iter      E             dE          RMSdq      gap      omega  full diag
   1    -32.0765898 -0.320766E+02  0.605E-02    3.64       0.0  T
   2    -32.0765907 -0.885040E-06  0.353E-02    3.64       1.0  T
   3    -32.0765904  0.256161E-06  0.573E-03    3.64       3.4  T
   4    -32.0765908 -0.356391E-06  0.198E-03    3.64       9.9  T
   5    -32.0765908 -0.321766E-07  0.102E-03    3.64      19.1  T
   6    -32.0765908 -0.699072E-08  0.352E-04    3.64      55.7  T
   7    -32.0765908 -0.815490E-09  0.135E-04    3.64     145.8  T
   8    -32.0765908 -0.630607E-10  0.357E-05    3.64     549.3  T
   9    -32.0765908 -0.119300E-10  0.136E-05    3.64    1441.0  T
  10    -32.0765908 -0.710543E-12  0.677E-06    3.64    2898.1  T
  11    -32.0765908 -0.305533E-12  0.216E-06    3.64    9088.9  T
     SCC iter.                  ...        0 min,  0.075 sec
     gradient                   ...        0 min,  0.002 sec
 * total energy  :   -31.5555046 Eh     change       -0.3807135E-04 Eh
   gradient norm :     0.0026321 Eh/α   predicted    -0.4397743E-04 (  15.51%)
   displ. norm   :     0.2375217 α      lambda       -0.3120307E-04
   maximum displ.:     0.1392034 α      in ANC's #1, #2, #3, ...

........................................................................
.............................. CYCLE   34 ..............................
........................................................................

 iter      E             dE          RMSdq      gap      omega  full diag
   1    -32.0751452 -0.320751E+02  0.859E-02    3.63       0.0  T
   2    -32.0751459 -0.687316E-06  0.502E-02    3.64       1.0  T
   3    -32.0751458  0.153264E-06  0.555E-03    3.64       3.5  T
   4    -32.0751460 -0.286855E-06  0.178E-03    3.64      11.0  T
   5    -32.0751461 -0.209483E-07  0.783E-04    3.64      25.1  T
   6    -32.0751461 -0.698882E-08  0.390E-04    3.64      50.2  T
   7    -32.0751461 -0.452474E-09  0.928E-05    3.64     211.2  T
   8    -32.0751461 -0.303757E-10  0.346E-05    3.64     567.3  T
   9    -32.0751461 -0.244498E-10  0.133E-05    3.64    1471.0  T
  10    -32.0751461 -0.383693E-12  0.316E-06    3.64    6214.1  T
  11    -32.0751461 -0.284217E-13  0.141E-06    3.64   13888.2  T
     SCC iter.                  ...        0 min,  0.075 sec
     gradient                   ...        0 min,  0.002 sec
 * total energy  :   -31.5555239 Eh     change       -0.1931099E-04 Eh
   gradient norm :     0.0020945 Eh/α   predicted    -0.1648211E-04 ( -14.65%)
   displ. norm   :     0.0943189 α      lambda       -0.1831027E-04
   maximum displ.:     0.0632776 α      in ANC's #1, #2, #3, ...

........................................................................
.............................. CYCLE   35 ..............................
........................................................................

 iter      E             dE          RMSdq      gap      omega  full diag
   1    -32.0757795 -0.320758E+02  0.353E-02    3.64       0.0  T
   2    -32.0757796 -0.138471E-06  0.207E-02    3.64       1.0  T
   3    -32.0757795  0.486855E-07  0.256E-03    3.64       7.6  T
   4    -32.0757796 -0.750271E-07  0.832E-04    3.64      23.6  T
   5    -32.0757796 -0.490362E-08  0.358E-04    3.64      54.8  T
   6    -32.0757796 -0.156123E-08  0.175E-04    3.64     111.9  T
   7    -32.0757796 -0.625349E-10  0.398E-05    3.64     492.8  T
   8    -32.0757796 -0.241798E-10  0.129E-05    3.64    1520.1  T
   9    -32.0757796 -0.218137E-11  0.538E-06    3.64    3642.0  T
  10    -32.0757796  0.142109E-13  0.195E-06    3.64   10062.8  T
     SCC iter.                  ...        0 min,  0.074 sec
     gradient                   ...        0 min,  0.002 sec
 * total energy  :   -31.5555375 Eh     change       -0.1362567E-04 Eh
   gradient norm :     0.0013869 Eh/α   predicted    -0.9237291E-05 ( -32.21%)
   displ. norm   :     0.2818770 α      lambda       -0.2638431E-04
   maximum displ.:     0.1925394 α      in ANC's #1, #2, #3, ...

........................................................................
.............................. CYCLE   36 ..............................
........................................................................

 iter      E             dE          RMSdq      gap      omega  full diag
   1    -32.0760260 -0.320760E+02  0.105E-01    3.64       0.0  T
   2    -32.0760271 -0.111059E-05  0.618E-02    3.65       1.0  T
   3    -32.0760269  0.173316E-06  0.687E-03    3.65       2.9  T
   4    -32.0760273 -0.369563E-06  0.224E-03    3.65       8.8  T
   5    -32.0760273 -0.252083E-07  0.120E-03    3.65      16.3  T
   6    -32.0760273 -0.171011E-07  0.523E-04    3.65      37.5  T
   7    -32.0760273 -0.499682E-09  0.110E-04    3.65     178.2  T
   8    -32.0760273 -0.127329E-09  0.403E-05    3.65     487.0  T
   9    -32.0760273 -0.181473E-10  0.175E-05    3.65    1122.5  T
  10    -32.0760273 -0.788702E-12  0.709E-06    3.65    2766.2  T
  11    -32.0760273 -0.923706E-13  0.195E-06    3.65   10080.7  T
     SCC iter.                  ...        0 min,  0.075 sec
     gradient                   ...        0 min,  0.002 sec
 * total energy  :   -31.5555568 Eh     change       -0.1922729E-04 Eh
   gradient norm :     0.0022655 Eh/α   predicted    -0.1366281E-04 ( -28.94%)
   displ. norm   :     0.0255918 α      lambda       -0.1267277E-04
   maximum displ.:     0.0180662 α      in ANC's #1, #2, #44, ...

........................................................................
.............................. CYCLE   37 ..............................
........................................................................

 iter      E             dE          RMSdq      gap      omega  full diag
   1    -32.0773112 -0.320773E+02  0.121E-02    3.65       0.0  T
   2    -32.0773112 -0.466953E-07  0.707E-03    3.65       2.8  T
   3    -32.0773112  0.390360E-07  0.172E-03    3.65      11.4  T
   4    -32.0773112 -0.498103E-07  0.436E-04    3.65      44.9  T
   5    -32.0773112 -0.169455E-08  0.154E-04    3.65     127.4  T
   6    -32.0773112 -0.319787E-09  0.634E-05    3.65     309.5  T
   7    -32.0773112 -0.219913E-10  0.243E-05    3.65     807.1  T
   8    -32.0773112 -0.159872E-11  0.754E-06    3.65    2600.6  T
   9    -32.0773112 -0.746070E-12  0.334E-06    3.65    5864.0  T
     SCC iter.                  ...        0 min,  0.078 sec
     gradient                   ...        0 min,  0.004 sec
 * total energy  :   -31.5555635 Eh     change       -0.6720268E-05 Eh
   gradient norm :     0.0013459 Eh/α   predicted    -0.6343357E-05 (  -5.61%)
   displ. norm   :     0.1441594 α      lambda       -0.9066018E-05
   maximum displ.:     0.0975197 α      in ANC's #1, #2, #3, ...

........................................................................
.............................. CYCLE   38 ..............................
........................................................................

 iter      E             dE          RMSdq      gap      omega  full diag
   1    -32.0766849 -0.320767E+02  0.554E-02    3.65       0.0  T
   2    -32.0766852 -0.287870E-06  0.325E-02    3.65       1.0  T
   3    -32.0766851  0.123818E-06  0.451E-03    3.65       4.4  T
   4    -32.0766853 -0.190195E-06  0.934E-04    3.65      21.0  T
   5    -32.0766853 -0.480655E-08  0.496E-04    3.65      39.6  T
   6    -32.0766853 -0.353411E-08  0.218E-04    3.65      90.0  T
   7    -32.0766853 -0.192024E-09  0.495E-05    3.65     395.9  T
   8    -32.0766853 -0.108784E-10  0.194E-05    3.65    1010.0  T
   9    -32.0766853 -0.434852E-11  0.856E-06    3.65    2292.1  T
  10    -32.0766853 -0.333955E-12  0.259E-06    3.65    7571.2  T
     SCC iter.                  ...        0 min,  0.077 sec
     gradient                   ...        0 min,  0.002 sec
 * total energy  :   -31.5555711 Eh     change       -0.7594017E-05 Eh
   gradient norm :     0.0008761 Eh/α   predicted    -0.4575671E-05 ( -39.75%)
   displ. norm   :     0.0651121 α      lambda       -0.9269604E-05
   maximum displ.:     0.0369014 α      in ANC's #1, #2, #10, ...

........................................................................
.............................. CYCLE   39 ..............................
........................................................................

 iter      E             dE          RMSdq      gap      omega  full diag
   1    -32.0774355 -0.320774E+02  0.233E-02    3.65       0.0  T
   2    -32.0774357 -0.161885E-06  0.136E-02    3.65       1.4  T
   3    -32.0774356  0.359661E-07  0.353E-03    3.65       5.6  T
   4    -32.0774357 -0.644854E-07  0.699E-04    3.65      28.1  T
   5    -32.0774357  0.535657E-09  0.412E-04    3.65      47.6  T
   6    -32.0774357 -0.192121E-08  0.148E-04    3.65     132.6  T
   7    -32.0774357 -0.101615E-09  0.483E-05    3.65     405.7  T
   8    -32.0774357 -0.760281E-11  0.193E-05    3.65    1014.9  T
   9    -32.0774357 -0.244427E-11  0.873E-06    3.65    2247.0  T
  10    -32.0774357 -0.262901E-12  0.243E-06    3.65    8067.4  T
     SCC iter.                  ...        0 min,  0.075 sec
     gradient                   ...        0 min,  0.002 sec
 * total energy  :   -31.5555754 Eh     change       -0.4288443E-05 Eh
   gradient norm :     0.0023331 Eh/α   predicted    -0.4647119E-05 (   8.36%)
   displ. norm   :     0.0165037 α      lambda       -0.6081666E-05
   maximum displ.:     0.0112934 α      in ANC's #2, #1, #4, ...

........................................................................
.............................. CYCLE   40 ..............................
........................................................................

 iter      E             dE          RMSdq      gap      omega  full diag
   1    -32.0772457 -0.320772E+02  0.780E-03    3.65       0.0  T
   2    -32.0772457 -0.310483E-07  0.446E-03    3.65       4.4  T
   3    -32.0772457  0.219437E-08  0.100E-03    3.65      19.6  T
   4    -32.0772458 -0.456633E-08  0.299E-04    3.65      65.6  T
   5    -32.0772458 -0.350425E-09  0.184E-04    3.65     106.8  T
   6    -32.0772458 -0.444501E-09  0.627E-05    3.65     312.7  T
   7    -32.0772458 -0.154259E-10  0.211E-05    3.65     931.1  T
   8    -32.0772458 -0.252953E-11  0.545E-06    3.65    3600.3  T
   9    -32.0772458 -0.170530E-12  0.232E-06    3.65    8446.5  T
     SCC iter.                  ...        0 min,  0.077 sec
     gradient                   ...        0 min,  0.002 sec
 * total energy  :   -31.5555800 Eh     change       -0.4629783E-05 Eh
   gradient norm :     0.0015904 Eh/α   predicted    -0.3046157E-05 ( -34.21%)
   displ. norm   :     0.0607492 α      lambda       -0.9952554E-05
   maximum displ.:     0.0374876 α      in ANC's #2, #1, #4, ...

........................................................................
.............................. CYCLE   41 ..............................
........................................................................

 iter      E             dE          RMSdq      gap      omega  full diag
   1    -32.0763514 -0.320764E+02  0.243E-02    3.65       0.0  T
   2    -32.0763516 -0.197600E-06  0.140E-02    3.65       1.4  T
   3    -32.0763516  0.476612E-08  0.260E-03    3.65       7.5  T
   4    -32.0763516 -0.230241E-07  0.690E-04    3.65      28.4  T
   5    -32.0763516 -0.125659E-08  0.415E-04    3.65      47.2  T
   6    -32.0763516 -0.244120E-08  0.154E-04    3.65     126.9  T
   7    -32.0763516 -0.734843E-10  0.470E-05    3.65     417.7  T
   8    -32.0763516 -0.114184E-10  0.138E-05    3.65    1425.9  T
   9    -32.0763516 -0.144240E-11  0.570E-06    3.65    3440.0  T
  10    -32.0763516 -0.170530E-12  0.241E-06    3.65    8124.0  T
     SCC iter.                  ...        0 min,  0.078 sec
     gradient                   ...        0 min,  0.002 sec
 * total energy  :   -31.5555876 Eh     change       -0.7633912E-05 Eh
   gradient norm :     0.0013672 Eh/α   predicted    -0.4988407E-05 ( -34.65%)
   displ. norm   :     0.0605469 α      lambda       -0.6494857E-05
   maximum displ.:     0.0334847 α      in ANC's #1, #2, #4, ...

........................................................................
.............................. CYCLE   42 ..............................
........................................................................

 iter      E             dE          RMSdq      gap      omega  full diag
   1    -32.0764667 -0.320765E+02  0.217E-02    3.65       0.0  T
   2    -32.0764668 -0.332993E-07  0.127E-02    3.65       1.5  T
   3    -32.0764667  0.216961E-07  0.126E-03    3.65      15.6  T
   4    -32.0764668 -0.273207E-07  0.514E-04    3.65      38.1  T
   5    -32.0764668 -0.426623E-08  0.143E-04    3.65     137.5  T
   6    -32.0764668 -0.521965E-10  0.742E-05    3.65     264.3  T
   7    -32.0764668 -0.633094E-11  0.189E-05    3.65    1039.0  T
   8    -32.0764668 -0.571987E-11  0.699E-06    3.65    2807.2  T
   9    -32.0764668 -0.774492E-12  0.197E-06    3.65    9953.2  T
     SCC iter.                  ...        0 min,  0.075 sec
     gradient                   ...        0 min,  0.002 sec
 * total energy  :   -31.5555957 Eh     change       -0.8055485E-05 Eh
   gradient norm :     0.0016487 Eh/α   predicted    -0.3253588E-05 ( -59.61%)
   displ. norm   :     0.3184100 α      lambda       -0.3022816E-04
   maximum displ.:     0.1885667 α      in ANC's #1, #2, #4, ...
 * RMSD in coord.:     0.7628660 α      energy gain  -0.8289171E-03 Eh

generating ANC from model Hessian ...
Using Lindh-Hessian (1995)
 Shifting diagonal of input Hessian by   9.138586393052697E-003
 Lowest  eigenvalues of input Hessian
    0.000000    0.000000    0.000000    0.000000    0.000000    0.000000
    0.010000    0.010089    0.010617    0.011281    0.012181    0.012422
    0.015039    0.017116    0.018460    0.019320    0.024193    0.024840
 Highest eigenvalues
    1.362315    1.549599    1.575581    1.880111    1.985302    2.003082
 

........................................................................
.............................. CYCLE   43 ..............................
........................................................................

 iter      E             dE          RMSdq      gap      omega  full diag
   1    -32.0758765 -0.320759E+02  0.115E-01    3.64       0.0  T
   2    -32.0758772 -0.687860E-06  0.674E-02    3.64       1.0  T
   3    -32.0758765  0.685774E-06  0.667E-03    3.64       2.9  T
   4    -32.0758774 -0.907538E-06  0.225E-03    3.64       8.7  T
   5    -32.0758775 -0.701922E-07  0.689E-04    3.64      28.4  T
   6    -32.0758775 -0.597765E-09  0.366E-04    3.64      53.6  T
   7    -32.0758775 -0.335916E-09  0.675E-05    3.64     290.5  T
   8    -32.0758775 -0.101984E-09  0.243E-05    3.64     808.2  T
   9    -32.0758775 -0.662226E-11  0.925E-06    3.64    2120.9  T
  10    -32.0758775 -0.397904E-12  0.314E-06    3.64    6241.0  T
     SCC iter.                  ...        0 min,  0.075 sec
     gradient                   ...        0 min,  0.002 sec
 * total energy  :   -31.5556212 Eh     change       -0.2554752E-04 Eh
   gradient norm :     0.0021763 Eh/α   predicted     0.0000000E+00 (-100.00%)
   displ. norm   :     0.0193378 α      lambda       -0.1758660E-04
   maximum displ.:     0.0094329 α      in ANC's #4, #1, #15, ...

........................................................................
.............................. CYCLE   44 ..............................
........................................................................

 iter      E             dE          RMSdq      gap      omega  full diag
   1    -32.0767170 -0.320767E+02  0.134E-02    3.65       0.0  T
   2    -32.0767170 -0.885459E-07  0.781E-03    3.65       2.5  T
   3    -32.0767170  0.354117E-08  0.167E-03    3.65      11.7  T
   4    -32.0767171 -0.147023E-07  0.701E-04    3.65      28.0  T
   5    -32.0767171 -0.185103E-09  0.317E-04    3.65      61.9  T
   6    -32.0767171 -0.175583E-08  0.107E-04    3.65     183.0  T
   7    -32.0767171 -0.572768E-10  0.444E-05    3.65     441.3  T
   8    -32.0767171 -0.156959E-10  0.975E-06    3.65    2011.5  T
   9    -32.0767171 -0.461853E-12  0.445E-06    3.65    4410.5  T
     SCC iter.                  ...        0 min,  0.075 sec
     gradient                   ...        0 min,  0.002 sec
 * total energy  :   -31.5556322 Eh     change       -0.1093622E-04 Eh
   gradient norm :     0.0006159 Eh/α   predicted    -0.8868284E-05 ( -18.91%)
   displ. norm   :     0.0302117 α      lambda       -0.4577128E-05
   maximum displ.:     0.0183506 α      in ANC's #4, #1, #3, ...

........................................................................
.............................. CYCLE   45 ..............................
........................................................................

 iter      E             dE          RMSdq      gap      omega  full diag
   1    -32.0772492 -0.320772E+02  0.105E-02    3.65       0.0  T
   2    -32.0772493 -0.395594E-07  0.595E-03    3.65       3.3  T
   3    -32.0772493 -0.199317E-08  0.104E-03    3.65      18.8  T
   4    -32.0772493 -0.229257E-08  0.359E-04    3.65      54.6  T
   5    -32.0772493 -0.107595E-08  0.149E-04    3.65     131.2  T
   6    -32.0772493 -0.261828E-09  0.607E-05    3.65     323.1  T
   7    -32.0772493 -0.402878E-11  0.249E-05    3.65     787.0  T
   8    -32.0772493 -0.927969E-11  0.421E-06    3.65    4656.8  T
   9    -32.0772493 -0.113687E-12  0.222E-06    3.65    8824.3  T
     SCC iter.                  ...        0 min,  0.074 sec
     gradient                   ...        0 min,  0.002 sec
 * total energy  :   -31.5556357 Eh     change       -0.3576896E-05 Eh
   gradient norm :     0.0007185 Eh/α   predicted    -0.2295881E-05 ( -35.81%)
   displ. norm   :     0.0284366 α      lambda       -0.2747178E-05
   maximum displ.:     0.0151632 α      in ANC's #4, #1, #3, ...

........................................................................
.............................. CYCLE   46 ..............................
........................................................................

 iter      E             dE          RMSdq      gap      omega  full diag
   1    -32.0771059 -0.320771E+02  0.874E-03    3.65       0.0  T
   2    -32.0771059 -0.313769E-07  0.481E-03    3.65       4.1  T
   3    -32.0771059  0.173970E-08  0.109E-03    3.65      18.1  T
   4    -32.0771059 -0.379640E-08  0.489E-04    3.65      40.1  T
   5    -32.0771059 -0.247446E-08  0.128E-04    3.65     153.4  T
   6    -32.0771059 -0.379295E-09  0.425E-05    3.65     461.8  T
   7    -32.0771059 -0.455458E-11  0.180E-05    3.65    1088.0  T
   8    -32.0771059 -0.206057E-12  0.532E-06    3.65    3686.2  T
   9    -32.0771059 -0.163425E-12  0.212E-06    3.65    9230.0  T
     SCC iter.                  ...        0 min,  0.077 sec
     gradient                   ...        0 min,  0.002 sec
 * total energy  :   -31.5556388 Eh     change       -0.3039777E-05 Eh
   gradient norm :     0.0006061 Eh/α   predicted    -0.1376870E-05 ( -54.70%)
[...]
         :: add. restraining           0.000000000000 Eh    ::
         :: total charge               0.000000000000 e     ::
         :::::::::::::::::::::::::::::::::::::::::::::::::::::

           ------------------------------------------------- 
          |                Numerical Hessian                |
           ------------------------------------------------- 
step length          :   0.00500
SCC accuracy         :   0.30000
Hessian scale factor :   1.00000
frozen atoms in %    :   0.00000    0
RMS gradient         :   0.00003
estimated CPU  time      1.12 min
estimated wall time      0.14 min

writing file <hessian>.

 projected vibrational frequencies (cm⁻¹)
eigval :       -0.00    -0.00     0.00     0.00     0.00     0.00
eigval :       24.65    64.28    84.94   113.49   161.40   170.39
eigval :      201.68   222.57   248.18   262.37   314.88   361.21
eigval :      366.24   392.85   473.08   585.85   648.64   659.30
eigval :      679.06   690.50   736.56   760.62   769.33   872.91
eigval :      896.14   925.87   931.67   967.51   982.12   995.07
eigval :     1013.60  1017.24  1063.76  1077.72  1084.83  1115.17
eigval :     1123.33  1181.71  1203.76  1222.63  1230.87  1250.19
eigval :     1268.51  1280.19  1317.26  1407.76  1412.82  1421.47
eigval :     1448.76  1451.33  1462.01  1496.55  1499.47  1504.94
eigval :     1506.63  1578.16  1589.24  2936.11  2941.14  2951.46
eigval :     2955.16  3011.78  3012.25  3023.49  3025.14  3034.11
eigval :     3040.94  3054.28  3067.43  3074.35  3086.70  3093.40
           -------------------------------------------------
          |                Property Printout                |
           -------------------------------------------------

    * Orbital Energies and Occupations

         #    Occupation            Energy/Eh            Energy/eV
      -------------------------------------------------------------
         1        2.0000           -0.6587627             -17.9258
       ...           ...                  ...                  ...
        18        2.0000           -0.4754457             -12.9375
        19        2.0000           -0.4741807             -12.9031
        20        2.0000           -0.4670886             -12.7101
        21        2.0000           -0.4610108             -12.5447
        22        2.0000           -0.4564780             -12.4214
        23        2.0000           -0.4434841             -12.0678
        24        2.0000           -0.4381608             -11.9230
        25        2.0000           -0.4238978             -11.5348
        26        2.0000           -0.4163951             -11.3307
        27        2.0000           -0.4070712             -11.0770
        28        2.0000           -0.4029544             -10.9649
        29        2.0000           -0.3994886             -10.8706
        30        2.0000           -0.3641513              -9.9091 (HOMO)
        31                         -0.2300730              -6.2606 (LUMO)
        32                         -0.2216165              -6.0305
        33                         -0.1544136              -4.2018
        34                         -0.1502872              -4.0895
        35                         -0.0931528              -2.5348
        36                          0.0035595               0.0969
        37                          0.0493095               1.3418
        38                          0.0995057               2.7077
        39                          0.1121386               3.0514
        40                          0.1211526               3.2967
        41                          0.1307709               3.5585
       ...                                ...                  ...
        64                          0.7777702              21.1642
      -------------------------------------------------------------
                  HL-Gap            0.1340783 Eh            3.6485 eV
             Fermi-level           -0.2971121 Eh           -8.0848 eV

     #   Z          covCN         q      C6AA      α(0)
     1  15 P        3.031    -0.115   165.444    23.107
     2   6 C        3.748    -0.045    21.453     6.606
     3   1 H        0.926     0.040     2.447     2.446
     4   1 H        0.925     0.046     2.368     2.407
     5   6 C        3.822    -0.097    22.341     6.726
     6   1 H        0.925     0.041     2.434     2.440
     7   1 H        0.925     0.039     2.464     2.455
     8   1 H        0.925     0.031     2.569     2.506
     9   6 C        2.915     0.012    27.743     8.637
    10   6 C        2.955    -0.033    28.818     8.805
    11   6 C        3.034    -0.030    28.717     8.790
    12   6 C        2.920    -0.032    28.788     8.799
    13   6 C        2.918    -0.030    28.748     8.792
    14   6 C        2.920    -0.031    28.774     8.796
    15   1 H        0.926     0.036     2.506     2.476
    16   1 H        0.925     0.035     2.522     2.483
    17   1 H        0.926     0.027     2.629     2.536
    18   1 H        0.926     0.029     2.606     2.524
    19   1 H        0.926     0.028     2.617     2.530
    20   6 C        3.747    -0.046    21.460     6.607
    21   1 H        0.926     0.040     2.449     2.447
    22   1 H        0.926     0.042     2.421     2.433
    23   6 C        3.780    -0.096    22.347     6.734
    24   1 H        0.925     0.037     2.487     2.466
    25   1 H        0.925     0.038     2.471     2.458
    26   1 H        0.925     0.033     2.540     2.492

 Mol. C6AA /au·bohr⁶  :       7599.354831
 Mol. C8AA /au·bohr⁸  :     202588.237754
 Mol. α(0) /au        :        139.499256


Wiberg/Mayer (AO) data.
largest (>0.10) Wiberg bond orders for each atom

 ---------------------------------------------------------------------------
     #   Z sym  total        # sym  WBO       # sym  WBO       # sym  WBO
 ---------------------------------------------------------------------------
     1  15 P    3.375 --     2 C    1.030     9 C    1.017    20 C    1.012
     2   6 C    3.995 --     1 P    1.030     5 C    1.016     3 H    0.956
                             4 H    0.949
     3   1 H    0.998 --     2 C    0.956
     4   1 H    0.998 --     2 C    0.949
     5   6 C    3.997 --     2 C    1.016     6 H    0.985     8 H    0.985
                             7 H    0.983
     6   1 H    0.998 --     5 C    0.985
     7   1 H    0.998 --     5 C    0.983
     8   1 H    0.999 --     5 C    0.985
     9   6 C    3.982 --    10 C    1.404    11 C    1.390     1 P    1.017
                            14 C    0.106
    10   6 C    3.993 --    12 C    1.439     9 C    1.404    15 H    0.961
                            13 C    0.107
    11   6 C    3.992 --    13 C    1.457     9 C    1.390    16 H    0.962
                            12 C    0.110
    12   6 C    3.993 --    14 C    1.442    10 C    1.439    17 H    0.970
                            11 C    0.110
    13   6 C    3.991 --    11 C    1.457    14 C    1.428    18 H    0.970
                            10 C    0.107
    14   6 C    3.992 --    12 C    1.442    13 C    1.428    19 H    0.971
                             9 C    0.106
    15   1 H    0.999 --    10 C    0.961
    16   1 H    0.999 --    11 C    0.962
    17   1 H    0.999 --    12 C    0.970
    18   1 H    0.999 --    13 C    0.970
    19   1 H    0.998 --    14 C    0.971
    20   6 C    3.994 --     1 P    1.012    23 C    1.012    21 H    0.957
                            22 H    0.956
    21   1 H    0.998 --    20 C    0.957
    22   1 H    0.998 --    20 C    0.956
    23   6 C    3.997 --    20 C    1.012    24 H    0.985    26 H    0.983
                            25 H    0.983
    24   1 H    0.999 --    23 C    0.985
    25   1 H    0.999 --    23 C    0.983
    26   1 H    0.999 --    23 C    0.983
 ---------------------------------------------------------------------------

Topologies differ in total number of bonds
Writing topology from bond orders to xtbtopo.mol

molecular dipole:
                 x           y           z       tot (Debye)
 q only:       -0.078       0.187      -0.245
   full:       -0.237       0.182      -0.583       1.664
molecular quadrupole (traceless):
                xx          xy          yy          xz          yz          zz
 q only:       -0.647      -0.210      -1.535      -0.428      -1.139       2.183
  q+dip:       -1.496      -0.282      -0.463       1.321       0.817       1.959
   full:       -2.472       0.029      -1.436      -0.229      -0.087       3.908

           -------------------------------------------------
          |                Geometry Summary                 |
           -------------------------------------------------

      molecular mass/u    :      166.2002322
   center of mass at/Å    :        0.4175296      -1.3858523      -3.6119797
  moments of inertia/u·Å² :        0.3629512E+03   0.7191425E+03   0.8740891E+03
rotational constants/cm⁻¹ :        0.4644600E-01   0.2344129E-01   0.1928594E-01

 * 24 selected distances

     #   Z          #   Z                                           value/Å
     1  15 P        2   6 C                                       1.8632557 (max)
     2   6 C        3   1 H                                       1.0942962
     2   6 C        4   1 H                                       1.0920465
     2   6 C        5   6 C                                       1.5243579
     5   6 C        6   1 H                                       1.0880640
     5   6 C        7   1 H                                       1.0884053
     5   6 C        8   1 H                                       1.0891972
     9   6 C       10   6 C                                       1.3889418
     9   6 C       11   6 C                                       1.3938147
    10   6 C       12   6 C                                       1.3847435
    11   6 C       13   6 C                                       1.3808430
    12   6 C       14   6 C                                       1.3835381
    13   6 C       14   6 C                                       1.3857394
    10   6 C       15   1 H                                       1.0792927 (min)
    11   6 C       16   1 H                                       1.0820890
    12   6 C       17   1 H                                       1.0809705
    13   6 C       18   1 H                                       1.0805994
    14   6 C       19   1 H                                       1.0801885
    20   6 C       21   1 H                                       1.0939877
    20   6 C       22   1 H                                       1.0936765
    20   6 C       23   6 C                                       1.5224557
    23   6 C       24   1 H                                       1.0870966
    23   6 C       25   1 H                                       1.0886600
    23   6 C       26   1 H                                       1.0890729

 * 3 distinct bonds (by element types)

   Z      Z             #   av. dist./Å        max./Å        min./Å
   1 H    6 C          15     1.0871762     1.0942962     1.0792927
   6 C    6 C           8     1.4205543     1.5243579     1.3808430
   6 C   15 P           1     1.8632557     1.8632557     1.8632557

           -------------------------------------------------
          |               Frequency Printout                |
           -------------------------------------------------
 projected vibrational frequencies (cm⁻¹)
eigval :       -0.00    -0.00     0.00     0.00     0.00     0.00
eigval :       24.65    64.28    84.94   113.49   161.40   170.39
eigval :      201.68   222.57   248.18   262.37   314.88   361.21
eigval :      366.24   392.85   473.08   585.85   648.64   659.30
eigval :      679.06   690.50   736.56   760.62   769.33   872.91
eigval :      896.14   925.87   931.67   967.51   982.12   995.07
eigval :     1013.60  1017.24  1063.76  1077.72  1084.83  1115.17
eigval :     1123.33  1181.71  1203.76  1222.63  1230.87  1250.19
eigval :     1268.51  1280.19  1317.26  1407.76  1412.82  1421.47
eigval :     1448.76  1451.33  1462.01  1496.55  1499.47  1504.94
eigval :     1506.63  1578.16  1589.24  2936.11  2941.14  2951.46
eigval :     2955.16  3011.78  3012.25  3023.49  3025.14  3034.11
eigval :     3040.94  3054.28  3067.43  3074.35  3086.70  3093.40
 reduced masses (amu)
   1: 14.62   2: 15.44   3: 10.82   4: 15.23   5: 11.53   6: 10.27   7:  9.91   8:  8.79
   9:  8.99  10:  9.76  11:  6.84  12:  6.78  13:  7.23  14:  6.89  15:  6.44  16:  8.77
  17: 13.07  18: 12.88  19: 10.46  20: 18.45  21: 12.82  22: 11.18  23: 13.89  24: 11.28
  25: 14.03  26: 12.63  27:  3.35  28:  6.97  29:  4.73  30:  3.30  31:  3.57  32:  4.14
  33:  2.97  34: 10.38  35:  3.27  36:  3.13  37:  3.64  38:  4.41  39:  9.55  40:  9.07
  41:  8.30  42:  8.50  43:  4.39  44:  1.31  45:  1.90  46:  3.63  47:  3.26  48:  4.25
  49:  4.13  50:  3.44  51: 11.94  52:  2.90  53:  2.94  54:  8.53  55:  2.48  56:  4.11
  57:  5.70  58:  1.53  59:  1.56  60:  1.56  61:  1.54  62: 11.43  63: 11.44  64:  1.93
  65:  1.98  66:  1.52  67:  1.51  68:  1.82  69:  1.87  70:  1.90  71:  1.70  72:  1.43
  73:  1.57  74:  1.80  75:  1.77  76:  1.83  77:  1.88  78:  1.86
 IR intensities (km·mol⁻¹)
   1:  0.19   2:  0.05   3:  0.04   4:  0.03   5:  0.03   6:  0.10   7:  0.18   8:  0.06
   9:  0.10  10:  0.21  11:  0.15  12:  0.10  13:  0.14  14:  0.17  15:  0.06  16:  0.66
  17:  0.23  18:  0.82  19:  0.16  20:  0.65  21:  5.33  22:  0.05  23: 11.99  24:  8.10
  25:  8.53  26: 11.00  27: 19.46  28: 37.00  29: 17.87  30:  0.07  31:  0.08  32:  0.09
  33:  0.00  34:  1.65  35:  4.90  36:  2.39  37:  0.78  38:  4.59  39:  6.17  40:  7.73
  41:  0.21  42:  1.59  43:  0.01  44:  0.01  45:  0.66  46:  2.46  47:  2.19  48:  5.99
  49:  6.79  50:  0.74  51:  0.40  52:  1.72  53:  2.37  54:  0.88  55:  0.54  56:  0.77
  57:  0.06  58:  1.98  59:  1.10  60:  1.35  61:  1.81  62:  0.33  63:  4.19  64:  3.69
  65: 40.58  66: 15.26  67: 22.68  68: 49.13  69: 46.24  70: 22.52  71: 31.63  72: 16.24
  73: 24.61  74: 16.65  75:  8.29  76: 48.24  77: 78.72  78: 23.25
 Raman intensities (Ä⁴*amu⁻¹)
   1:  0.00   2:  0.00   3:  0.00   4:  0.00   5:  0.00   6:  0.00   7:  0.00   8:  0.00
   9:  0.00  10:  0.00  11:  0.00  12:  0.00  13:  0.00  14:  0.00  15:  0.00  16:  0.00
  17:  0.00  18:  0.00  19:  0.00  20:  0.00  21:  0.00  22:  0.00  23:  0.00  24:  0.00
  25:  0.00  26:  0.00  27:  0.00  28:  0.00  29:  0.00  30:  0.00  31:  0.00  32:  0.00
  33:  0.00  34:  0.00  35:  0.00  36:  0.00  37:  0.00  38:  0.00  39:  0.00  40:  0.00
  41:  0.00  42:  0.00  43:  0.00  44:  0.00  45:  0.00  46:  0.00  47:  0.00  48:  0.00
  49:  0.00  50:  0.00  51:  0.00  52:  0.00  53:  0.00  54:  0.00  55:  0.00  56:  0.00
  57:  0.00  58:  0.00  59:  0.00  60:  0.00  61:  0.00  62:  0.00  63:  0.00  64:  0.00
  65:  0.00  66:  0.00  67:  0.00  68:  0.00  69:  0.00  70:  0.00  71:  0.00  72:  0.00
  73:  0.00  74:  0.00  75:  0.00  76:  0.00  77:  0.00  78:  0.00
 output can be read by thermo (or use thermo option).
 writing <g98.out> molden fake output.
 recommended (thermochemical) frequency scaling factor: 1.0
           -------------------------------------------------
          |             Thermodynamic Functions             |
           -------------------------------------------------

Molecule has no symmetry elements
It seems to be the C1 point group
c1  symmetry found (for desy threshold:  0.10E+00) used in thermo

          ...................................................
          :                      SETUP                      :
          :.................................................:
          :  # frequencies                          72      :
          :  # imaginary freq.                       0      :
          :  linear?                             false      :
          :  only rotor calc.                    false      :
          :  symmetry                               c1      :
          :  rotational number                       1      :
          :  scaling factor                  1.0000000      :
          :  rotor cutoff                   50.0000000 cm⁻¹ :
          :  imag. cutoff                  -20.0000000 cm⁻¹ :
          :.................................................:

    mode    ω/cm⁻¹     T·S(HO)/kcal·mol⁻¹    T·S(FR)/kcal·mol⁻¹   T·S(vib)
   ------------------------------------------------------------------------
       1     24.65    -1.85432 (  5.58%)    -1.26579 ( 94.42%)    -1.29860
       2     64.28    -1.28835 ( 73.21%)    -0.98199 ( 26.79%)    -1.20627
       3     84.94    -1.12501 ( 89.28%)    -0.89946 ( 10.72%)    -1.10083
       4    113.49    -0.95656 ( 96.37%)    -0.81365 (  3.63%)    -0.95137
       5    161.40    -0.75530 ( 99.09%)    -0.70934 (  0.91%)    -0.75488
       6    170.39    -0.72486 ( 99.26%)    -0.69329 (  0.74%)    -0.72462
       7    201.68    -0.63140 ( 99.62%)    -0.64336 (  0.38%)    -0.63145
       8    222.57    -0.57783 ( 99.75%)    -0.61416 (  0.25%)    -0.57792
       9    248.18    -0.51982 ( 99.84%)    -0.58190 (  0.16%)    -0.51992
      10    262.37    -0.49074 ( 99.87%)    -0.56543 (  0.13%)    -0.49084
   ------------------------------------------------------------------------

   temp. (K)  partition function   enthalpy   heat capacity  entropy
                                   cal/mol     cal/K/mol   cal/K/mol   J/K/mol
 298.15  VIB  0.146E+05             6120.688     39.478     37.342
         ROT  0.115E+07              888.752      2.981     30.720
         INT  0.168E+11             7009.441     42.459     68.062
         TR   0.207E+28             1481.254      4.968     41.214
         TOT                        8490.6944    47.4268   109.2759   457.2104

       T/K    H(0)-H(T)+PV         H(T)/Eh          T*S/Eh         G(T)/Eh
   ------------------------------------------------------------------------
    298.15    0.135308E-01    0.232465E+00    0.519205E-01    0.180544E+00
   ------------------------------------------------------------------------

         :::::::::::::::::::::::::::::::::::::::::::::::::::::
         ::                  THERMODYNAMIC                  ::
         :::::::::::::::::::::::::::::::::::::::::::::::::::::
         :: total free energy         -31.375120154172 Eh   ::
         ::.................................................::
         :: total energy              -31.555664642681 Eh   ::
         :: zero point energy           0.218934214930 Eh   ::
         :: G(RRHO) w/o ZPVE           -0.038389726421 Eh   ::
         :: G(RRHO) contrib.            0.180544488509 Eh   ::
         :::::::::::::::::::::::::::::::::::::::::::::::::::::

optimized geometry written to: xtbopt.xyz


           -------------------------------------------------
          | TOTAL ENERGY              -31.555664642681 Eh   |
          | TOTAL ENTHALPY            -31.323199644912 Eh   |
          | TOTAL FREE ENERGY         -31.375120154172 Eh   |
          | GRADIENT NORM               0.000034674860 Eh/α |
          | HOMO-LUMO GAP               3.648456613051 eV   |
           -------------------------------------------------

------------------------------------------------------------------------
 * finished run on 2025/07/14 at 11:38:42.264     
------------------------------------------------------------------------
 total:
 * wall-time:     0 d,  0 h,  0 min,  8.737 sec
 *  cpu-time:     0 d,  0 h,  1 min, 31.165 sec
 * ratio c/w:    10.435 speedup
 SCF:
 * wall-time:     0 d,  0 h,  0 min,  0.086 sec
 *  cpu-time:     0 d,  0 h,  0 min,  1.023 sec
 * ratio c/w:    11.859 speedup
 ANC optimizer:
 * wall-time:     0 d,  0 h,  0 min,  5.461 sec
 *  cpu-time:     0 d,  0 h,  1 min,  4.226 sec
 * ratio c/w:    11.761 speedup
 analytical hessian:
 * wall-time:     0 d,  0 h,  0 min,  3.179 sec
 *  cpu-time:     0 d,  0 h,  0 min, 25.815 sec
 * ratio c/w:     8.120 speedup

