      -----------------------------------------------------------      
     |                   =====================                   |     
     |                           x T B                           |     
     |                   =====================                   |     
     |                         S. Grimme                         |     
     |          Mulliken Center for Theoretical Chemistry        |     
     |                    University of Bonn                     |     
      -----------------------------------------------------------      

   * xtb version 6.7.0 (08769fc) compiled by 'albert@albert-system' on 2024-03-04

   xtb is free software: you can redistribute it and/or modify it under
   the terms of the GNU Lesser General Public License as published by
   the Free Software Foundation, either version 3 of the License, or
   (at your option) any later version.
   
   xtb is distributed in the hope that it will be useful,
   but WITHOUT ANY WARRANTY; without even the implied warranty of
   MERCHANTABILITY or FITNESS FOR A PARTICULAR PURPOSE.  See the
   GNU Lesser General Public License for more details.
   
   Cite this work as:
   * C. Bannwarth, E. Caldeweyher, S. Ehlert, A. Hansen, P. Pracht,
     J. Seibert, S. Spicher, S. Grimme, WIREs Comput. Mol. Sci., 2020, 11,
     e01493. DOI: 10.1002/wcms.1493
   
   for GFN2-xTB:
   * C. Bannwarth, S. Ehlert and S. Grimme., J. Chem. Theory Comput., 2019,
     15, 1652-1671. DOI: 10.1021/acs.jctc.8b01176
   for GFN1-xTB:
   * S. Grimme, C. Bannwarth, P. Shushkov, J. Chem. Theory Comput., 2017,
     13, 1989-2009. DOI: 10.1021/acs.jctc.7b00118
   for GFN0-xTB:
   * P. Pracht, E. Caldeweyher, S. Ehlert, S. Grimme, ChemRxiv, 2019, preprint.
     DOI: 10.26434/chemrxiv.8326202.v1
   for GFN-FF:
   * S. Spicher and S. Grimme, Angew. Chem. Int. Ed., 2020, 59, 15665-15673.
     DOI: 10.1002/anie.202004239
   
   for ALPB and GBSA implicit solvation:
   * S. Ehlert, M. Stahn, S. Spicher, S. Grimme, J. Chem. Theory Comput.,
     2021, 17, 4250-4261. DOI: 10.1021/acs.jctc.1c00471
   
   for ddCOSMO and CPCM-X implicit solvation:
   * M. Stahn, S. Ehlert, S. Grimme, J. Phys. Chem. A,
     2023, XX, XXXX-XXXX. DOI: 10.1021/acs.jpca.3c04382
   
   for DFT-D4:
   * E. Caldeweyher, C. Bannwarth and S. Grimme, J. Chem. Phys., 2017,
     147, 034112. DOI: 10.1063/1.4993215
   * E. Caldeweyher, S. Ehlert, A. Hansen, H. Neugebauer, S. Spicher,
     C. Bannwarth and S. Grimme, J. Chem. Phys., 2019, 150, 154122.
     DOI: 10.1063/1.5090222
   * E. Caldeweyher, J.-M. Mewes, S. Ehlert and S. Grimme, Phys. Chem. Chem. Phys.
     2020, 22, 8499-8512. DOI: 10.1039/D0CP00502A
   
   for sTDA-xTB:
   * S. Grimme and C. Bannwarth, J. Chem. Phys., 2016, 145, 054103.
     DOI: 10.1063/1.4959605
   
   in the mass-spec context:
   * V. Asgeirsson, C. Bauer and S. Grimme, Chem. Sci., 2017, 8, 4879.
     DOI: 10.1039/c7sc00601b
   * J. Koopman and S. Grimme, ACS Omega 2019, 4, 12, 15120-15133.
     DOI: 10.1021/acsomega.9b02011
   
   for metadynamics refer to:
   * S. Grimme, J. Chem. Theory Comput., 2019, 155, 2847-2862
     DOI: 10.1021/acs.jctc.9b00143
   
   for SPH calculations refer to:
   * S. Spicher and S. Grimme, J. Chem. Theory Comput., 2021, 17, 1701-1714
     DOI: 10.1021/acs.jctc.0c01306
   
   for ONIOM refer to:
   * C. Plett, A. Katbashev, S. Ehlert, S. Grimme, M. Bursch,
     Phys. Chem. Chem. Phys., 2023, 25, 17860-17868. DOI: 10.1039/D3CP02178E
   
   for DIPRO refer to:
   * J. Kohn, N. Gildemeister, S. Grimme, D. Fazzi, A. Hansen,
     J. Chem. Phys., 2023, just accepted.
   
   for PTB refer to:
   * S. Grimme, M. Mueller, A. Hansen, J. Chem. Phys., 2023, 158, 124111.
     DOI: 10.1063/5.0137838
   
   with help from (in alphabetical order)
   P. Atkinson, C. Bannwarth, F. Bohle, G. Brandenburg, E. Caldeweyher
   M. Checinski, S. Dohm, S. Ehlert, S. Ehrlich, I. Gerasimov, C. Hölzer
   A. Katbashev, J. Kohn, J. Koopman, C. Lavigne, S. Lehtola, F. März, M. Müller,
   F. Musil, H. Neugebauer, J. Pisarek, C. Plett, P. Pracht, F. Pultar,
   J. Seibert, P. Shushkov, S. Spicher, M. Stahn, M. Steiner, T. Strunk,
   J. Stückrath, T. Rose, and J. Unsleber
   
 * started run on 2025/07/14 at 11:27:59.639     
   ID    Z sym.   atoms
    1   15 P      1
    2    6 C      2, 5, 9-14, 20, 23
    3    1 H      3, 4, 6-8, 15-19, 21, 22, 24-26

           -------------------------------------------------
          |                Calculation Setup                |
           -------------------------------------------------

          program call               : /home/minenky/programs/xtb/xtb-dist/bin/xtb m1_00_PEt2Ph-PBE0-D3-TZ-uniMM_20.xyz --charge 0 --T --ohess extreme --cycles 5000 --acc 0.01 --iterations 5000
          coordinate file            : m1_00_PEt2Ph-PBE0-D3-TZ-uniMM_20.xyz
          omp threads                :                    12

########################################################################
[WARNING] Please study the warnings concerning your input carefully
-1- prog_main_parseArguments: Unknown option '--T' provided
########################################################################

           -------------------------------------------------
          |                 G F N 2 - x T B                 |
           -------------------------------------------------

        Reference                      10.1021/acs.jctc.8b01176
      * Hamiltonian:
        H0-scaling (s, p, d)           1.850000    2.230000    2.230000
        zeta-weighting                 0.500000
      * Dispersion:
        s8                             2.700000
        a1                             0.520000
        a2                             5.000000
        s9                             5.000000
      * Repulsion:
        kExp                           1.500000    1.000000
        rExp                           1.000000
      * Coulomb:
        alpha                          2.000000
        third order                    shell-resolved
        anisotropic                    true
        a3                             3.000000
        a5                             4.000000
        cn-shift                       1.200000
        cn-exp                         4.000000
        max-rad                        5.000000


          ...................................................
          :                      SETUP                      :
          :.................................................:
          :  # basis functions                  65          :
          :  # atomic orbitals                  64          :
          :  # shells                           38          :
          :  # electrons                        60          :
          :  max. iterations                  5000          :
          :  Hamiltonian                  GFN2-xTB          :
          :  restarted?                      false          :
          :  GBSA solvation                  false          :
          :  PC potential                    false          :
          :  electronic temp.          300.0000000     K    :
          :  accuracy                    0.0100000          :
          :  -> integral cutoff          0.4500000E+02      :
          :  -> integral neglect         0.1000000E-09      :
          :  -> SCF convergence          0.1000000E-07 Eh   :
          :  -> wf. convergence          0.1000000E-05 e    :
          :  Broyden damping             0.4000000          :
          :  net charge                          0          :
          :  unpaired electrons                  0          :
          ...................................................

 iter      E             dE          RMSdq      gap      omega  full diag
   1    -32.0187077 -0.320187E+02  0.373E+00    4.00       0.0  T
   2    -32.0627262 -0.440186E-01  0.224E+00    3.66       1.0  T
   3    -32.0625867  0.139564E-03  0.840E-01    3.45       1.0  T
   4    -32.0634586 -0.871967E-03  0.266E-01    3.50       1.0  T
   5    -32.0646259 -0.116728E-02  0.121E-01    3.53       1.0  T
   6    -32.0648259 -0.199930E-03  0.442E-02    3.52       1.0  T
   7    -32.0648388 -0.129086E-04  0.148E-02    3.52       1.3  T
   8    -32.0648394 -0.662286E-06  0.624E-03    3.52       3.1  T
   9    -32.0648398 -0.381922E-06  0.154E-03    3.52      12.7  T
  10    -32.0648398 -0.269046E-07  0.491E-04    3.52      40.0  T
  11    -32.0648398 -0.478330E-09  0.243E-04    3.52      80.9  T
  12    -32.0648398 -0.475431E-09  0.573E-05    3.52     342.1  T
  13    -32.0648398 -0.514433E-11  0.235E-05    3.52     834.5  T
  14    -32.0648398 -0.155609E-11  0.766E-06    3.52    2560.0  T
  15    -32.0648398 -0.127898E-12  0.219E-06    3.52    8935.8  T

   *** convergence criteria satisfied after 15 iterations ***

         #    Occupation            Energy/Eh            Energy/eV
      -------------------------------------------------------------
         1        2.0000           -0.6603293             -17.9685
       ...           ...                  ...                  ...
        24        2.0000           -0.4365157             -11.8782
        25        2.0000           -0.4261733             -11.5968
        26        2.0000           -0.4141955             -11.2708
        27        2.0000           -0.4097768             -11.1506
        28        2.0000           -0.4025605             -10.9542
        29        2.0000           -0.4014260             -10.9234
        30        2.0000           -0.3585863              -9.7576 (HOMO)
        31                         -0.2292006              -6.2369 (LUMO)
        32                         -0.2221055              -6.0438
        33                         -0.1550960              -4.2204
        34                         -0.1419503              -3.8627
        35                         -0.0986501              -2.6844
       ...                                ...                  ...
        64                          0.7978628              21.7110
      -------------------------------------------------------------
                  HL-Gap            0.1293858 Eh            3.5208 eV
             Fermi-level           -0.2938935 Eh           -7.9972 eV

 SCC (total)                   0 d,  0 h,  0 min,  0.087 sec
 SCC setup                      ...        0 min,  0.000 sec (  0.141%)
 Dispersion                     ...        0 min,  0.000 sec (  0.143%)
 classical contributions        ...        0 min,  0.000 sec (  0.011%)
 integral evaluation            ...        0 min,  0.002 sec (  2.159%)
 iterations                     ...        0 min,  0.083 sec ( 95.365%)
 molecular gradient             ...        0 min,  0.002 sec (  2.073%)
 printout                       ...        0 min,  0.000 sec (  0.092%)

         :::::::::::::::::::::::::::::::::::::::::::::::::::::
         ::                     SUMMARY                     ::
         :::::::::::::::::::::::::::::::::::::::::::::::::::::
         :: total energy             -31.550028468167 Eh    ::
         :: gradient norm              0.029242705054 Eh/a0 ::
         :: HOMO-LUMO gap              3.520766055273 eV    ::
         ::.................................................::
         :: SCC energy               -32.064648363435 Eh    ::
         :: -> isotropic ES            0.004123027077 Eh    ::
         :: -> anisotropic ES          0.006300434153 Eh    ::
         :: -> anisotropic XC          0.021429243616 Eh    ::
         :: -> dispersion             -0.023989183680 Eh    ::
         :: repulsion energy           0.514619895268 Eh    ::
         :: add. restraining           0.000000000000 Eh    ::
         :: total charge               0.000000000000 e     ::
         :::::::::::::::::::::::::::::::::::::::::::::::::::::

      ----------------------------------------------------------- 
     |                   =====================                   |
     |                        A N C O P T                        |
     |                   =====================                   |
     |               Approximate Normal Coordinate               |
     |                Rational Function Optimizer                |
      ----------------------------------------------------------- 
      ----------------------------------------------------------- 
     |                   =====================                   |
     |                        A N C O P T                        |
     |                   =====================                   |
     |               Approximate Normal Coordinate               |
     |                Rational Function Optimizer                |
      ----------------------------------------------------------- 

          ...................................................
          :                      SETUP                      :
          :.................................................:
          :   optimization level           extreme          :
          :   max. optcycles                  5000          :
          :   ANC micro-cycles                  20          :
          :   degrees of freedom                72          :
          :.................................................:
          :   RF solver                   davidson          :
          :   write xtbopt.log                true          :
          :   linear?                        false          :
          :   energy convergence         0.5000000E-07 Eh   :
          :   grad. convergence          0.5000000E-04 Eh/α :
          :   maxmium RF displ.          1.0000000          :
          :   Hlow (freq-cutoff)         0.1000000E-01      :
          :   Hmax (freq-cutoff)         5.0000000          :
          :   S6 in model hess.         20.0000000          :
          ...................................................

generating ANC from model Hessian ...
Using Lindh-Hessian (1995)
 Shifting diagonal of input Hessian by   9.335045528665414E-003
 Lowest  eigenvalues of input Hessian
    0.000000    0.000000    0.000000    0.000000    0.000000    0.000000
    0.010000    0.010565    0.010748    0.011502    0.011670    0.013096
    0.015269    0.017620    0.018578    0.019938    0.023990    0.024823
 Highest eigenvalues
    1.347063    1.535591    1.561922    1.864485    1.966008    1.985853
 

........................................................................
.............................. CYCLE    1 ..............................
........................................................................

 iter      E             dE          RMSdq      gap      omega  full diag
   1    -32.0648398 -0.320648E+02  0.113E-06    3.52       0.0  T
   2    -32.0648398 -0.710543E-14  0.717E-07    3.52   27357.4  T
   3    -32.0648398  0.142109E-13  0.478E-07    3.52   40985.9  T
     SCC iter.                  ...        0 min,  0.074 sec
     gradient                   ...        0 min,  0.002 sec
 * total energy  :   -31.5500285 Eh     change       -0.7105427E-13 Eh
   gradient norm :     0.0292427 Eh/α   predicted     0.0000000E+00 (-100.00%)
   displ. norm   :     0.2177485 α      lambda       -0.3265248E-02
   maximum displ.:     0.1011994 α      in ANC's #6, #20, #22, ...

........................................................................
.............................. CYCLE    2 ..............................
........................................................................

 iter      E             dE          RMSdq      gap      omega  full diag
   1    -32.0706494 -0.320706E+02  0.263E-01    3.61       0.0  T
   2    -32.0707092 -0.597951E-04  0.133E-01    3.62       1.0  T
   3    -32.0707138 -0.464778E-05  0.367E-02    3.64       1.0  T
   4    -32.0707156 -0.175958E-05  0.146E-02    3.63       1.3  T
   5    -32.0707160 -0.467133E-06  0.444E-03    3.63       4.4  T
   6    -32.0707163 -0.299401E-06  0.212E-03    3.63       9.2  T
   7    -32.0707164 -0.184194E-07  0.550E-04    3.63      35.6  T
   8    -32.0707164 -0.997566E-09  0.185E-04    3.63     105.8  T
   9    -32.0707164 -0.486295E-09  0.587E-05    3.63     334.2  T
  10    -32.0707164 -0.220055E-10  0.241E-05    3.63     814.7  T
  11    -32.0707164 -0.810019E-12  0.117E-05    3.63    1675.4  T
  12    -32.0707164 -0.170530E-11  0.307E-06    3.63    6389.2  T
  13    -32.0707164  0.710543E-14  0.109E-06    3.63   17942.2  T
     SCC iter.                  ...        0 min,  0.076 sec
     gradient                   ...        0 min,  0.002 sec
 * total energy  :   -31.5518684 Eh     change       -0.1839889E-02 Eh
   gradient norm :     0.0111626 Eh/α   predicted    -0.1710068E-02 (  -7.06%)
   displ. norm   :     0.1770588 α      lambda       -0.7060622E-03
   maximum displ.:     0.0949661 α      in ANC's #6, #12, #2, ...

........................................................................
.............................. CYCLE    3 ..............................
........................................................................

 iter      E             dE          RMSdq      gap      omega  full diag
   1    -32.0734049 -0.320734E+02  0.959E-02    3.60       0.0  T
   2    -32.0734084 -0.349374E-05  0.543E-02    3.59       1.0  T
   3    -32.0734079  0.536731E-06  0.134E-02    3.59       1.5  T
   4    -32.0734088 -0.916775E-06  0.379E-03    3.59       5.2  T
   5    -32.0734088 -0.246172E-07  0.189E-03    3.59      10.4  T
   6    -32.0734089 -0.720596E-07  0.758E-04    3.59      25.9  T
   7    -32.0734089 -0.157944E-08  0.171E-04    3.59     115.0  T
   8    -32.0734089 -0.796945E-10  0.591E-05    3.59     332.0  T
   9    -32.0734089 -0.738964E-11  0.283E-05    3.59     693.0  T
  10    -32.0734089 -0.679279E-11  0.112E-05    3.59    1746.2  T
  11    -32.0734089 -0.405009E-12  0.470E-06    3.59    4172.8  T
  12    -32.0734089 -0.781597E-13  0.114E-06    3.59   17165.8  T
     SCC iter.                  ...        0 min,  0.075 sec
     gradient                   ...        0 min,  0.002 sec
 * total energy  :   -31.5522808 Eh     change       -0.4124689E-03 Eh
   gradient norm :     0.0038081 Eh/α   predicted    -0.3641039E-03 ( -11.73%)
   displ. norm   :     0.1357908 α      lambda       -0.1782217E-03
   maximum displ.:     0.0752454 α      in ANC's #6, #2, #3, ...

........................................................................
.............................. CYCLE    4 ..............................
........................................................................

 iter      E             dE          RMSdq      gap      omega  full diag
   1    -32.0730630 -0.320731E+02  0.416E-02    3.59       0.0  T
   2    -32.0730636 -0.591348E-06  0.241E-02    3.59       1.0  T
   3    -32.0730635  0.897936E-07  0.584E-03    3.59       3.4  T
   4    -32.0730637 -0.185880E-06  0.111E-03    3.59      17.7  T
   5    -32.0730637 -0.513495E-09  0.527E-04    3.59      37.2  T
   6    -32.0730637 -0.406409E-08  0.211E-04    3.59      92.8  T
   7    -32.0730637 -0.267015E-09  0.846E-05    3.59     231.8  T
   8    -32.0730637 -0.385896E-10  0.329E-05    3.59     595.7  T
   9    -32.0730637 -0.625278E-11  0.139E-05    3.59    1408.0  T
  10    -32.0730637 -0.173372E-11  0.567E-06    3.59    3460.3  T
  11    -32.0730637 -0.220268E-12  0.249E-06    3.59    7861.9  T
     SCC iter.                  ...        0 min,  0.075 sec
     gradient                   ...        0 min,  0.002 sec
 * total energy  :   -31.5524186 Eh     change       -0.1377500E-03 Eh
   gradient norm :     0.0023157 Eh/α   predicted    -0.9077280E-04 ( -34.10%)
   displ. norm   :     0.2276087 α      lambda       -0.2011014E-03
   maximum displ.:     0.1229751 α      in ANC's #2, #6, #3, ...

........................................................................
.............................. CYCLE    5 ..............................
........................................................................

 iter      E             dE          RMSdq      gap      omega  full diag
   1    -32.0721683 -0.320722E+02  0.556E-02    3.59       0.0  T
   2    -32.0721689 -0.537501E-06  0.326E-02    3.59       1.0  T
   3    -32.0721687  0.155266E-06  0.577E-03    3.60       3.4  T
   4    -32.0721690 -0.271016E-06  0.139E-03    3.59      14.1  T
   5    -32.0721690 -0.503791E-08  0.722E-04    3.59      27.2  T
   6    -32.0721690 -0.864249E-08  0.328E-04    3.59      59.8  T
   7    -32.0721690 -0.288431E-09  0.104E-04    3.59     189.2  T
   8    -32.0721690 -0.119535E-09  0.397E-05    3.59     494.0  T
   9    -32.0721690 -0.123634E-11  0.172E-05    3.59    1140.0  T
  10    -32.0721690 -0.459721E-11  0.581E-06    3.59    3373.9  T
  11    -32.0721690 -0.923706E-13  0.307E-06    3.59    6395.1  T
     SCC iter.                  ...        0 min,  0.075 sec
     gradient                   ...        0 min,  0.002 sec
 * total energy  :   -31.5525747 Eh     change       -0.1561048E-03 Eh
   gradient norm :     0.0037385 Eh/α   predicted    -0.1057633E-03 ( -32.25%)
   displ. norm   :     0.2800046 α      lambda       -0.1945479E-03
   maximum displ.:     0.1519839 α      in ANC's #2, #3, #1, ...

........................................................................
.............................. CYCLE    6 ..............................
........................................................................

 iter      E             dE          RMSdq      gap      omega  full diag
   1    -32.0711746 -0.320712E+02  0.630E-02    3.60       0.0  T
   2    -32.0711749 -0.310915E-06  0.372E-02    3.60       1.0  T
   3    -32.0711748  0.822083E-07  0.302E-03    3.60       6.5  T
   4    -32.0711750 -0.159943E-06  0.152E-03    3.60      12.9  T
   5    -32.0711750 -0.270589E-07  0.573E-04    3.60      34.2  T
   6    -32.0711750 -0.850960E-09  0.276E-04    3.60      71.1  T
   7    -32.0711750 -0.304809E-09  0.716E-05    3.60     273.8  T
   8    -32.0711750 -0.540510E-10  0.335E-05    3.60     585.3  T
   9    -32.0711750 -0.869704E-11  0.147E-05    3.60    1337.6  T
  10    -32.0711750 -0.156319E-11  0.570E-06    3.60    3441.1  T
  11    -32.0711750 -0.284217E-13  0.293E-06    3.60    6696.1  T
     SCC iter.                  ...        0 min,  0.075 sec
     gradient                   ...        0 min,  0.002 sec
 * total energy  :   -31.5527386 Eh     change       -0.1639165E-03 Eh
   gradient norm :     0.0043819 Eh/α   predicted    -0.1049026E-03 ( -36.00%)
   displ. norm   :     0.3572063 α      lambda       -0.2530362E-03
   maximum displ.:     0.2027063 α      in ANC's #3, #2, #1, ...

........................................................................
.............................. CYCLE    7 ..............................
........................................................................

 iter      E             dE          RMSdq      gap      omega  full diag
   1    -32.0703818 -0.320704E+02  0.776E-02    3.60       0.0  T
   2    -32.0703823 -0.503616E-06  0.459E-02    3.60       1.0  T
   3    -32.0703821  0.177821E-06  0.483E-03    3.60       4.1  T
   4    -32.0703824 -0.319302E-06  0.160E-03    3.60      12.3  T
   5    -32.0703824 -0.929548E-08  0.827E-04    3.60      23.7  T
   6    -32.0703824 -0.575826E-08  0.290E-04    3.60      67.7  T
   7    -32.0703824 -0.382400E-09  0.714E-05    3.60     274.6  T
   8    -32.0703824 -0.341558E-10  0.268E-05    3.60     730.7  T
   9    -32.0703824 -0.157740E-11  0.119E-05    3.60    1648.1  T
  10    -32.0703824 -0.923706E-12  0.606E-06    3.60    3234.8  T
  11    -32.0703824 -0.142109E-12  0.275E-06    3.60    7137.3  T
     SCC iter.                  ...        0 min,  0.075 sec
     gradient                   ...        0 min,  0.002 sec
 * total energy  :   -31.5529545 Eh     change       -0.2159470E-03 Eh
   gradient norm :     0.0048930 Eh/α   predicted    -0.1426617E-03 ( -33.94%)
   displ. norm   :     0.4465154 α      lambda       -0.3457360E-03
   maximum displ.:     0.2629160 α      in ANC's #3, #2, #1, ...

........................................................................
.............................. CYCLE    8 ..............................
........................................................................

 iter      E             dE          RMSdq      gap      omega  full diag
   1    -32.0701847 -0.320702E+02  0.936E-02    3.60       0.0  T
   2    -32.0701857 -0.103422E-05  0.553E-02    3.60       1.0  T
   3    -32.0701852  0.495198E-06  0.902E-03    3.60       2.2  T
   4    -32.0701860 -0.745088E-06  0.191E-03    3.60      10.3  T
   5    -32.0701860 -0.110750E-07  0.114E-03    3.60      17.2  T
   6    -32.0701860 -0.147487E-07  0.406E-04    3.60      48.3  T
   7    -32.0701860 -0.802459E-09  0.132E-04    3.60     148.1  T
   8    -32.0701860 -0.155651E-09  0.450E-05    3.60     435.6  T
   9    -32.0701860 -0.254587E-10  0.189E-05    3.60    1036.9  T
  10    -32.0701860 -0.176215E-11  0.878E-06    3.60    2233.9  T
  11    -32.0701860 -0.468958E-12  0.355E-06    3.60    5527.8  T
     SCC iter.                  ...        0 min,  0.075 sec
     gradient                   ...        0 min,  0.002 sec
 * total energy  :   -31.5532355 Eh     change       -0.2809554E-03 Eh
   gradient norm :     0.0068523 Eh/α   predicted    -0.2073350E-03 ( -26.20%)
   displ. norm   :     0.4710204 α      lambda       -0.4231531E-03
   maximum displ.:     0.2888463 α      in ANC's #3, #2, #1, ...

........................................................................
.............................. CYCLE    9 ..............................
........................................................................

 iter      E             dE          RMSdq      gap      omega  full diag
   1    -32.0719020 -0.320719E+02  0.936E-02    3.60       0.0  T
   2    -32.0719034 -0.138871E-05  0.553E-02    3.60       1.0  T
   3    -32.0719028  0.619788E-06  0.956E-03    3.60       2.1  T
   4    -32.0719036 -0.864169E-06  0.235E-03    3.60       8.4  T
   5    -32.0719037 -0.483532E-07  0.112E-03    3.60      17.5  T
   6    -32.0719037 -0.244377E-07  0.453E-04    3.60      43.3  T
   7    -32.0719037 -0.310116E-09  0.158E-04    3.60     124.2  T
   8    -32.0719037 -0.346915E-09  0.403E-05    3.60     486.9  T
   9    -32.0719037 -0.123777E-10  0.180E-05    3.60    1090.1  T
  10    -32.0719037 -0.234479E-11  0.768E-06    3.60    2554.2  T
  11    -32.0719037 -0.419220E-12  0.295E-06    3.60    6651.8  T
     SCC iter.                  ...        0 min,  0.075 sec
     gradient                   ...        0 min,  0.002 sec
 * total energy  :   -31.5535647 Eh     change       -0.3291524E-03 Eh
   gradient norm :     0.0083962 Eh/α   predicted    -0.2585190E-03 ( -21.46%)
   displ. norm   :     0.4191528 α      lambda       -0.4263430E-03
   maximum displ.:     0.2636424 α      in ANC's #3, #2, #1, ...

........................................................................
.............................. CYCLE   10 ..............................
........................................................................

 iter      E             dE          RMSdq      gap      omega  full diag
   1    -32.0748356 -0.320748E+02  0.831E-02    3.61       0.0  T
   2    -32.0748373 -0.173654E-05  0.487E-02    3.61       1.0  T
   3    -32.0748371  0.250044E-06  0.760E-03    3.61       2.6  T
   4    -32.0748374 -0.300146E-06  0.354E-03    3.61       5.5  T
   5    -32.0748376 -0.203437E-06  0.796E-04    3.61      24.6  T
   6    -32.0748376 -0.729690E-08  0.418E-04    3.61      46.9  T
   7    -32.0748376 -0.520636E-09  0.127E-04    3.61     154.6  T
   8    -32.0748376 -0.269601E-09  0.388E-05    3.61     506.0  T
   9    -32.0748376 -0.102034E-10  0.155E-05    3.61    1264.2  T
  10    -32.0748376 -0.187583E-11  0.728E-06    3.61    2695.2  T
  11    -32.0748376 -0.333955E-12  0.220E-06    3.61    8917.1  T
     SCC iter.                  ...        0 min,  0.074 sec
     gradient                   ...        0 min,  0.002 sec
 * total energy  :   -31.5538918 Eh     change       -0.3271519E-03 Eh
   gradient norm :     0.0074279 Eh/α   predicted    -0.2506273E-03 ( -23.39%)
   displ. norm   :     0.5464588 α      lambda       -0.4053659E-03
   maximum displ.:     0.3441746 α      in ANC's #3, #2, #1, ...

........................................................................
.............................. CYCLE   11 ..............................
........................................................................

 iter      E             dE          RMSdq      gap      omega  full diag
   1    -32.0715798 -0.320716E+02  0.113E-01    3.61       0.0  T
   2    -32.0715837 -0.386451E-05  0.656E-02    3.62       1.0  T
   3    -32.0715830  0.706041E-06  0.160E-02    3.61       1.2  T
   4    -32.0715841 -0.116000E-05  0.340E-03    3.61       5.8  T
   5    -32.0715842 -0.845226E-07  0.199E-03    3.61       9.9  T
   6    -32.0715843 -0.574862E-07  0.838E-04    3.61      23.4  T
   7    -32.0715843 -0.234142E-08  0.278E-04    3.61      70.5  T
   8    -32.0715843 -0.141696E-09  0.941E-05    3.61     208.4  T
   9    -32.0715843 -0.107512E-09  0.374E-05    3.61     524.4  T
  10    -32.0715843 -0.301981E-11  0.121E-05    3.61    1623.5  T
  11    -32.0715843 -0.135003E-11  0.505E-06    3.61    3883.9  T
  12    -32.0715843 -0.426326E-13  0.157E-06    3.61   12526.0  T
     SCC iter.                  ...        0 min,  0.075 sec
     gradient                   ...        0 min,  0.002 sec
 * total energy  :   -31.5541318 Eh     change       -0.2399875E-03 Eh
   gradient norm :     0.0103661 Eh/α   predicted    -0.2632105E-03 (   9.68%)
   displ. norm   :     0.3530881 α      lambda       -0.6910206E-03
   maximum displ.:     0.2161225 α      in ANC's #4, #3, #6, ...

........................................................................
.............................. CYCLE   12 ..............................
........................................................................

 iter      E             dE          RMSdq      gap      omega  full diag
   1    -32.0792403 -0.320792E+02  0.118E-01    3.63       0.0  T
   2    -32.0792472 -0.685314E-05  0.644E-02    3.63       1.0  T
   3    -32.0792473 -0.142518E-06  0.214E-02    3.63       1.0  T
   4    -32.0792480 -0.631194E-06  0.415E-03    3.63       4.7  T
   5    -32.0792480 -0.364929E-07  0.238E-03    3.63       8.2  T
   6    -32.0792480 -0.272000E-07  0.111E-03    3.63      17.6  T
   7    -32.0792480 -0.623057E-08  0.353E-04    3.63      55.6  T
   8    -32.0792480 -0.638821E-09  0.797E-05    3.63     246.1  T
   9    -32.0792480 -0.157883E-10  0.394E-05    3.63     497.6  T
  10    -32.0792480 -0.172378E-10  0.161E-05    3.63    1216.2  T
  11    -32.0792480 -0.170530E-11  0.567E-06    3.63    3456.4  T
  12    -32.0792480 -0.333955E-12  0.216E-06    3.63    9058.6  T
     SCC iter.                  ...        0 min,  0.075 sec
     gradient                   ...        0 min,  0.002 sec
 * total energy  :   -31.5543065 Eh     change       -0.1746616E-03 Eh
   gradient norm :     0.0101366 Eh/α   predicted    -0.3885941E-03 ( 122.48%)
   displ. norm   :     0.2323217 α      lambda       -0.3168972E-03
   maximum displ.:     0.1390574 α      in ANC's #3, #2, #1, ...

........................................................................
.............................. CYCLE   13 ..............................
........................................................................

 iter      E             dE          RMSdq      gap      omega  full diag
   1    -32.0744843 -0.320745E+02  0.627E-02    3.63       0.0  T
   2    -32.0744864 -0.209165E-05  0.335E-02    3.63       1.0  T
   3    -32.0744863  0.590146E-07  0.142E-02    3.63       1.4  T
   4    -32.0744867 -0.330249E-06  0.238E-03    3.63       8.2  T
   5    -32.0744867 -0.788702E-10  0.178E-03    3.63      11.0  T
   6    -32.0744867 -0.294902E-07  0.753E-04    3.63      26.1  T
   7    -32.0744867 -0.243107E-08  0.254E-04    3.63      77.2  T
   8    -32.0744867 -0.423910E-10  0.575E-05    3.63     341.3  T
   9    -32.0744867 -0.226379E-10  0.302E-05    3.63     650.3  T
  10    -32.0744867 -0.913758E-11  0.759E-06    3.63    2583.8  T
  11    -32.0744867 -0.419220E-12  0.351E-06    3.63    5595.3  T
     SCC iter.                  ...        0 min,  0.075 sec
     gradient                   ...        0 min,  0.002 sec
 * total energy  :   -31.5544863 Eh     change       -0.1798384E-03 Eh
   gradient norm :     0.0054337 Eh/α   predicted    -0.1670061E-03 (  -7.14%)
   displ. norm   :     0.1009827 α      lambda       -0.1304339E-03
   maximum displ.:     0.0496403 α      in ANC's #1, #10, #3, ...

........................................................................
.............................. CYCLE   14 ..............................
........................................................................

 iter      E             dE          RMSdq      gap      omega  full diag
   1    -32.0747646 -0.320748E+02  0.315E-02    3.63       0.0  T
   2    -32.0747653 -0.668508E-06  0.175E-02    3.63       1.1  T
   3    -32.0747653 -0.220792E-07  0.482E-03    3.63       4.1  T
   4    -32.0747653 -0.278818E-07  0.152E-03    3.63      12.9  T
   5    -32.0747654 -0.241839E-07  0.615E-04    3.63      31.9  T
   6    -32.0747654 -0.368655E-08  0.270E-04    3.63      72.7  T
   7    -32.0747654 -0.480938E-09  0.723E-05    3.63     271.2  T
   8    -32.0747654 -0.524949E-10  0.323E-05    3.63     606.7  T
   9    -32.0747654 -0.868994E-11  0.950E-06    3.63    2063.4  T
  10    -32.0747654 -0.653699E-12  0.404E-06    3.63    4859.7  T
     SCC iter.                  ...        0 min,  0.074 sec
     gradient                   ...        0 min,  0.002 sec
 * total energy  :   -31.5545728 Eh     change       -0.8655355E-04 Eh
   gradient norm :     0.0025690 Eh/α   predicted    -0.6588286E-04 ( -23.88%)
   displ. norm   :     0.1980446 α      lambda       -0.1580802E-03
   maximum displ.:     0.1486928 α      in ANC's #4, #3, #2, ...

........................................................................
.............................. CYCLE   15 ..............................
........................................................................

 iter      E             dE          RMSdq      gap      omega  full diag
   1    -32.0754030 -0.320754E+02  0.464E-02    3.64       0.0  T
   2    -32.0754035 -0.565732E-06  0.265E-02    3.64       1.0  T
   3    -32.0754035  0.551429E-08  0.463E-03    3.64       4.2  T
   4    -32.0754036 -0.558166E-07  0.126E-03    3.64      15.6  T
   5    -32.0754036 -0.166126E-07  0.743E-04    3.64      26.4  T
   6    -32.0754036 -0.489997E-08  0.267E-04    3.64      73.6  T
   7    -32.0754036 -0.123627E-09  0.893E-05    3.64     219.6  T
   8    -32.0754036 -0.763194E-10  0.195E-05    3.64    1003.4  T
   9    -32.0754036 -0.305533E-11  0.114E-05    3.64    1720.3  T
  10    -32.0754036 -0.167688E-11  0.394E-06    3.64    4974.8  T
  11    -32.0754036 -0.639488E-13  0.135E-06    3.64   14504.7  T
     SCC iter.                  ...        0 min,  0.075 sec
     gradient                   ...        0 min,  0.002 sec
 * total energy  :   -31.5546813 Eh     change       -0.1084602E-03 Eh
   gradient norm :     0.0044772 Eh/α   predicted    -0.8214051E-04 ( -24.27%)
   displ. norm   :     0.2285068 α      lambda       -0.1626316E-03
   maximum displ.:     0.1699942 α      in ANC's #4, #3, #10, ...

........................................................................
.............................. CYCLE   16 ..............................
........................................................................

 iter      E             dE          RMSdq      gap      omega  full diag
   1    -32.0757981 -0.320758E+02  0.523E-02    3.65       0.0  T
   2    -32.0757985 -0.442527E-06  0.311E-02    3.65       1.0  T
   3    -32.0757985  0.310073E-07  0.543E-03    3.65       3.6  T
   4    -32.0757986 -0.121456E-06  0.175E-03    3.65      11.2  T
   5    -32.0757986  0.632986E-08  0.993E-04    3.65      19.7  T
   6    -32.0757986 -0.114926E-07  0.418E-04    3.65      46.9  T
   7    -32.0757986 -0.408093E-09  0.915E-05    3.65     214.3  T
   8    -32.0757986 -0.308447E-10  0.260E-05    3.65     754.2  T
   9    -32.0757986 -0.234479E-11  0.131E-05    3.65    1493.4  T
  10    -32.0757986 -0.103739E-11  0.474E-06    3.65    4140.7  T
  11    -32.0757986 -0.426326E-13  0.145E-06    3.65   13525.4  T
     SCC iter.                  ...        0 min,  0.075 sec
     gradient                   ...        0 min,  0.002 sec
 * total energy  :   -31.5547958 Eh     change       -0.1144934E-03 Eh
   gradient norm :     0.0037220 Eh/α   predicted    -0.8556255E-04 ( -25.27%)
   displ. norm   :     0.2714708 α      lambda       -0.1652772E-03
   maximum displ.:     0.1764656 α      in ANC's #4, #1, #3, ...

........................................................................
.............................. CYCLE   17 ..............................
........................................................................

 iter      E             dE          RMSdq      gap      omega  full diag
   1    -32.0759222 -0.320759E+02  0.670E-02    3.65       0.0  T
   2    -32.0759231 -0.886428E-06  0.388E-02    3.65       1.0  T
   3    -32.0759231 -0.106756E-07  0.544E-03    3.65       3.6  T
   4    -32.0759231 -0.433759E-07  0.202E-03    3.65       9.7  T
   5    -32.0759232 -0.590961E-07  0.687E-04    3.65      28.5  T
   6    -32.0759232 -0.484786E-08  0.306E-04    3.65      64.0  T
   7    -32.0759232 -0.694669E-09  0.827E-05    3.65     237.2  T
   8    -32.0759232 -0.544844E-10  0.308E-05    3.65     635.9  T
   9    -32.0759232 -0.662226E-11  0.103E-05    3.65    1902.1  T
  10    -32.0759232 -0.632383E-12  0.390E-06    3.65    5034.7  T
  11    -32.0759232 -0.113687E-12  0.175E-06    3.65   11182.8  T
     SCC iter.                  ...        0 min,  0.075 sec
     gradient                   ...        0 min,  0.002 sec
 * total energy  :   -31.5549216 Eh     change       -0.1257620E-03 Eh
   gradient norm :     0.0037563 Eh/α   predicted    -0.8873181E-04 ( -29.44%)
   displ. norm   :     0.2920354 α      lambda       -0.1839892E-03
   maximum displ.:     0.1365521 α      in ANC's #4, #6, #1, ...

........................................................................
.............................. CYCLE   18 ..............................
........................................................................

 iter      E             dE          RMSdq      gap      omega  full diag
   1    -32.0756906 -0.320757E+02  0.776E-02    3.65       0.0  T
   2    -32.0756921 -0.150364E-05  0.451E-02    3.65       1.0  T
   3    -32.0756922 -0.587534E-07  0.616E-03    3.65       3.2  T
   4    -32.0756922 -0.534425E-07  0.207E-03    3.65       9.5  T
   5    -32.0756923 -0.406327E-07  0.996E-04    3.65      19.7  T
   6    -32.0756923 -0.127112E-07  0.384E-04    3.65      51.0  T
   7    -32.0756923 -0.442085E-09  0.129E-04    3.65     152.5  T
   8    -32.0756923 -0.202022E-09  0.380E-05    3.65     516.8  T
   9    -32.0756923 -0.480327E-11  0.181E-05    3.65    1082.6  T
  10    -32.0756923 -0.223110E-11  0.562E-06    3.65    3489.5  T
  11    -32.0756923 -0.106581E-12  0.297E-06    3.65    6598.4  T
     SCC iter.                  ...        0 min,  0.074 sec
     gradient                   ...        0 min,  0.002 sec
 * total energy  :   -31.5550424 Eh     change       -0.1208580E-03 Eh
   gradient norm :     0.0045362 Eh/α   predicted    -0.9984309E-04 ( -17.39%)
   displ. norm   :     0.1588827 α      lambda       -0.1183744E-03
   maximum displ.:     0.0935241 α      in ANC's #6, #2, #1, ...

........................................................................
.............................. CYCLE   19 ..............................
........................................................................

 iter      E             dE          RMSdq      gap      omega  full diag
   1    -32.0756352 -0.320756E+02  0.447E-02    3.65       0.0  T
   2    -32.0756358 -0.546692E-06  0.255E-02    3.65       1.0  T
   3    -32.0756358  0.237676E-07  0.609E-03    3.65       3.2  T
   4    -32.0756359 -0.999686E-07  0.129E-03    3.65      15.1  T
   5    -32.0756359 -0.286038E-08  0.732E-04    3.65      26.8  T
   6    -32.0756359 -0.530645E-08  0.360E-04    3.65      54.5  T
   7    -32.0756359 -0.482892E-09  0.743E-05    3.65     263.8  T
   8    -32.0756359 -0.367208E-10  0.269E-05    3.65     729.8  T
   9    -32.0756359 -0.571276E-11  0.972E-06    3.65    2017.1  T
  10    -32.0756359 -0.824230E-12  0.336E-06    3.65    5836.6  T
     SCC iter.                  ...        0 min,  0.074 sec
     gradient                   ...        0 min,  0.002 sec
 * total energy  :   -31.5551206 Eh     change       -0.7821481E-04 Eh
   gradient norm :     0.0035483 Eh/α   predicted    -0.6068499E-04 ( -22.41%)
   displ. norm   :     0.1817149 α      lambda       -0.9005419E-04
   maximum displ.:     0.0979708 α      in ANC's #1, #6, #9, ...

........................................................................
.............................. CYCLE   20 ..............................
........................................................................

 iter      E             dE          RMSdq      gap      omega  full diag
   1    -32.0760274 -0.320760E+02  0.542E-02    3.65       0.0  T
   2    -32.0760277 -0.302250E-06  0.321E-02    3.65       1.0  T
   3    -32.0760276  0.133613E-06  0.345E-03    3.65       5.7  T
   4    -32.0760278 -0.204295E-06  0.104E-03    3.65      18.8  T
   5    -32.0760278 -0.110432E-07  0.558E-04    3.65      35.1  T
   6    -32.0760278 -0.227585E-08  0.171E-04    3.65     114.7  T
   7    -32.0760278 -0.696190E-10  0.596E-05    3.65     329.0  T
   8    -32.0760278 -0.142322E-10  0.241E-05    3.65     814.7  T
   9    -32.0760278 -0.184741E-12  0.119E-05    3.65    1642.8  T
  10    -32.0760278 -0.238032E-11  0.395E-06    3.65    4967.6  T
  11    -32.0760278  0.213163E-13  0.155E-06    3.65   12678.8  T
     SCC iter.                  ...        0 min,  0.074 sec
     gradient                   ...        0 min,  0.002 sec
 * total energy  :   -31.5551762 Eh     change       -0.5556092E-04 Eh
   gradient norm :     0.0037065 Eh/α   predicted    -0.4651484E-04 ( -16.28%)
   displ. norm   :     0.1544228 α      lambda       -0.8425508E-04
   maximum displ.:     0.1111494 α      in ANC's #2, #6, #8, ...
 * RMSD in coord.:     0.7321221 α      energy gain  -0.5147727E-02 Eh

generating ANC from model Hessian ...
Using Lindh-Hessian (1995)
 Shifting diagonal of input Hessian by   9.259354970147713E-003
 Lowest  eigenvalues of input Hessian
    0.000000    0.000000    0.000000    0.000000    0.000000    0.000000
    0.010000    0.010510    0.010924    0.011271    0.011987    0.012839
    0.015322    0.017057    0.018457    0.019551    0.023821    0.024439
 Highest eigenvalues
    1.363994    1.553616    1.574288    1.878453    1.986353    2.004743
 

........................................................................
.............................. CYCLE   21 ..............................
........................................................................

 iter      E             dE          RMSdq      gap      omega  full diag
   1    -32.0752593 -0.320753E+02  0.473E-02    3.64       0.0  T
   2    -32.0752597 -0.455503E-06  0.273E-02    3.64       1.0  T
   3    -32.0752596  0.881703E-07  0.557E-03    3.64       3.5  T
   4    -32.0752598 -0.161683E-06  0.165E-03    3.64      11.9  T
   5    -32.0752598 -0.159380E-08  0.107E-03    3.64      18.4  T
   6    -32.0752598 -0.171927E-07  0.393E-04    3.64      49.9  T
   7    -32.0752598 -0.366484E-09  0.117E-04    3.64     167.9  T
   8    -32.0752598 -0.124274E-10  0.326E-05    3.64     601.7  T
   9    -32.0752598 -0.152767E-10  0.139E-05    3.64    1408.6  T
  10    -32.0752598 -0.952127E-12  0.336E-06    3.64    5831.4  T
  11    -32.0752598 -0.284217E-13  0.166E-06    3.64   11799.4  T
     SCC iter.                  ...        0 min,  0.075 sec
     gradient                   ...        0 min,  0.002 sec
 * total energy  :   -31.5552199 Eh     change       -0.4370558E-04 Eh
   gradient norm :     0.0033828 Eh/α   predicted     0.0000000E+00 (-100.00%)
   displ. norm   :     0.0345095 α      lambda       -0.3724494E-04
   maximum displ.:     0.0201409 α      in ANC's #1, #2, #24, ...

........................................................................
.............................. CYCLE   22 ..............................
........................................................................

 iter      E             dE          RMSdq      gap      omega  full diag
   1    -32.0760808 -0.320761E+02  0.197E-02    3.64       0.0  T
   2    -32.0760810 -0.154229E-06  0.110E-02    3.64       1.8  T
   3    -32.0760809  0.107455E-07  0.400E-03    3.64       4.9  T
   4    -32.0760810 -0.349127E-07  0.736E-04    3.64      26.6  T
   5    -32.0760810 -0.367230E-09  0.392E-04    3.64      50.1  T
   6    -32.0760810 -0.115617E-08  0.199E-04    3.64      98.6  T
   7    -32.0760810 -0.104620E-09  0.480E-05    3.64     408.5  T
   8    -32.0760810 -0.827782E-11  0.132E-05    3.64    1481.4  T
   9    -32.0760810 -0.179057E-11  0.495E-06    3.64    3958.2  T
  10    -32.0760810 -0.191847E-12  0.163E-06    3.64   12064.8  T
     SCC iter.                  ...        0 min,  0.074 sec
     gradient                   ...        0 min,  0.002 sec
 * total energy  :   -31.5552459 Eh     change       -0.2596269E-04 Eh
   gradient norm :     0.0011665 Eh/α   predicted    -0.1870020E-04 ( -27.97%)
   displ. norm   :     0.0776348 α      lambda       -0.2004893E-04
   maximum displ.:     0.0501903 α      in ANC's #1, #2, #8, ...

........................................................................
.............................. CYCLE   23 ..............................
........................................................................

 iter      E             dE          RMSdq      gap      omega  full diag
   1    -32.0767536 -0.320768E+02  0.329E-02    3.64       0.0  T
   2    -32.0767538 -0.179526E-06  0.187E-02    3.64       1.1  T
   3    -32.0767538  0.539883E-07  0.471E-03    3.64       4.2  T
   4    -32.0767538 -0.933527E-07  0.631E-04    3.64      31.1  T
   5    -32.0767538 -0.212061E-09  0.391E-04    3.64      50.2  T
   6    -32.0767538 -0.205141E-08  0.172E-04    3.64     114.1  T
   7    -32.0767538 -0.847251E-10  0.384E-05    3.64     511.2  T
   8    -32.0767538 -0.136140E-10  0.133E-05    3.64    1479.3  T
   9    -32.0767538 -0.184031E-11  0.533E-06    3.64    3680.7  T
  10    -32.0767538 -0.127898E-12  0.163E-06    3.64   12035.7  T
     SCC iter.                  ...        0 min,  0.075 sec
     gradient                   ...        0 min,  0.002 sec
 * total energy  :   -31.5552637 Eh     change       -0.1786514E-04 Eh
   gradient norm :     0.0016455 Eh/α   predicted    -0.1005917E-04 ( -43.69%)
   displ. norm   :     0.0569083 α      lambda       -0.1044764E-04
   maximum displ.:     0.0410806 α      in ANC's #1, #2, #10, ...

........................................................................
.............................. CYCLE   24 ..............................
........................................................................

 iter      E             dE          RMSdq      gap      omega  full diag
   1    -32.0765952 -0.320766E+02  0.234E-02    3.64       0.0  T
   2    -32.0765953 -0.383066E-07  0.138E-02    3.64       1.4  T
   3    -32.0765952  0.120535E-07  0.147E-03    3.64      13.3  T
   4    -32.0765953 -0.224020E-07  0.397E-04    3.64      49.4  T
   5    -32.0765953 -0.823988E-09  0.171E-04    3.64     114.7  T
   6    -32.0765953 -0.528466E-09  0.656E-05    3.64     298.9  T
   7    -32.0765953 -0.103029E-10  0.210E-05    3.64     933.7  T
   8    -32.0765953 -0.429168E-11  0.824E-06    3.64    2378.9  T
   9    -32.0765953 -0.774492E-12  0.197E-06    3.64    9946.6  T
     SCC iter.                  ...        0 min,  0.073 sec
     gradient                   ...        0 min,  0.002 sec
 * total energy  :   -31.5552780 Eh     change       -0.1422426E-04 Eh
   gradient norm :     0.0014182 Eh/α   predicted    -0.5231568E-05 ( -63.22%)
   displ. norm   :     0.1009187 α      lambda       -0.1899404E-04
   maximum displ.:     0.0729957 α      in ANC's #1, #2, #10, ...

........................................................................
.............................. CYCLE   25 ..............................
........................................................................

 iter      E             dE          RMSdq      gap      omega  full diag
   1    -32.0761371 -0.320761E+02  0.416E-02    3.64       0.0  T
   2    -32.0761372 -0.847042E-07  0.243E-02    3.64       1.0  T
   3    -32.0761372  0.159060E-07  0.153E-03    3.65      12.8  T
   4    -32.0761372 -0.330534E-07  0.775E-04    3.65      25.3  T
   5    -32.0761372 -0.123133E-07  0.197E-04    3.65      99.4  T
   6    -32.0761372 -0.212935E-09  0.117E-04    3.65     167.7  T
   7    -32.0761372 -0.217497E-10  0.350E-05    3.65     560.5  T
   8    -32.0761372 -0.173230E-10  0.859E-06    3.65    2283.6  T
   9    -32.0761372 -0.141398E-11  0.351E-06    3.65    5581.1  T
     SCC iter.                  ...        0 min,  0.073 sec
     gradient                   ...        0 min,  0.002 sec
 * total energy  :   -31.5553014 Eh     change       -0.2339919E-04 Eh
   gradient norm :     0.0006779 Eh/α   predicted    -0.9540314E-05 ( -59.23%)
   displ. norm   :     0.1467047 α      lambda       -0.2143650E-04
   maximum displ.:     0.1064758 α      in ANC's #1, #2, #10, ...

........................................................................
.............................. CYCLE   26 ..............................
........................................................................

 iter      E             dE          RMSdq      gap      omega  full diag
   1    -32.0758699 -0.320759E+02  0.594E-02    3.64       0.0  T
   2    -32.0758701 -0.236217E-06  0.346E-02    3.64       1.0  T
   3    -32.0758701  0.394524E-07  0.288E-03    3.64       6.8  T
   4    -32.0758702 -0.766099E-07  0.131E-03    3.64      15.0  T
   5    -32.0758702 -0.274229E-07  0.343E-04    3.64      57.2  T
   6    -32.0758702 -0.161977E-08  0.166E-04    3.64     118.3  T
   7    -32.0758702 -0.105651E-09  0.561E-05    3.64     349.6  T
   8    -32.0758702 -0.322373E-10  0.197E-05    3.64     997.6  T
   9    -32.0758702 -0.414957E-11  0.606E-06    3.64    3235.1  T
  10    -32.0758702 -0.326850E-12  0.293E-06    3.64    6682.8  T
     SCC iter.                  ...        0 min,  0.074 sec
     gradient                   ...        0 min,  0.002 sec
 * total energy  :   -31.5553267 Eh     change       -0.2535991E-04 Eh
   gradient norm :     0.0012908 Eh/α   predicted    -0.1082832E-04 ( -57.30%)
   displ. norm   :     0.1569579 α      lambda       -0.1828813E-04
   maximum displ.:     0.1148438 α      in ANC's #1, #2, #5, ...

........................................................................
.............................. CYCLE   27 ..............................
........................................................................

 iter      E             dE          RMSdq      gap      omega  full diag
   1    -32.0757129 -0.320757E+02  0.616E-02    3.64       0.0  T
   2    -32.0757132 -0.256342E-06  0.360E-02    3.64       1.0  T
   3    -32.0757131  0.788553E-07  0.293E-03    3.64       6.7  T
   4    -32.0757132 -0.103025E-06  0.142E-03    3.64      13.8  T
   5    -32.0757132 -0.453938E-07  0.343E-04    3.64      57.2  T
   6    -32.0757132 -0.945676E-09  0.194E-04    3.64     101.1  T
   7    -32.0757132 -0.540723E-10  0.581E-05    3.64     337.6  T
   8    -32.0757132 -0.494609E-10  0.161E-05    3.64    1216.1  T
   9    -32.0757132 -0.238742E-11  0.601E-06    3.64    3263.9  T
  10    -32.0757132 -0.227374E-12  0.277E-06    3.64    7067.4  T
     SCC iter.                  ...        0 min,  0.074 sec
     gradient                   ...        0 min,  0.002 sec
 * total energy  :   -31.5553501 Eh     change       -0.2337556E-04 Eh
   gradient norm :     0.0012695 Eh/α   predicted    -0.9246412E-05 ( -60.44%)
   displ. norm   :     0.1351732 α      lambda       -0.1526127E-04
   maximum displ.:     0.1019442 α      in ANC's #1, #2, #4, ...

........................................................................
.............................. CYCLE   28 ..............................
........................................................................

 iter      E             dE          RMSdq      gap      omega  full diag
   1    -32.0760794 -0.320761E+02  0.510E-02    3.64       0.0  T
   2    -32.0760796 -0.169038E-06  0.299E-02    3.64       1.0  T
   3    -32.0760795  0.336949E-07  0.244E-03    3.64       8.0  T
   4    -32.0760796 -0.655093E-07  0.957E-04    3.64      20.5  T
   5    -32.0760796 -0.147987E-07  0.335E-04    3.64      58.5  T
   6    -32.0760796 -0.161032E-08  0.165E-04    3.64     118.7  T
   7    -32.0760796 -0.468035E-10  0.428E-05    3.64     457.8  T
   8    -32.0760796 -0.268443E-10  0.149E-05    3.64    1314.2  T
   9    -32.0760796 -0.198241E-11  0.684E-06    3.64    2868.5  T
  10    -32.0760796 -0.234479E-12  0.142E-06    3.64   13835.9  T
     SCC iter.                  ...        0 min,  0.074 sec
     gradient                   ...        0 min,  0.002 sec
 * total energy  :   -31.5553705 Eh     change       -0.2041648E-04 Eh
   gradient norm :     0.0007859 Eh/α   predicted    -0.7693333E-05 ( -62.32%)
   displ. norm   :     0.1322684 α      lambda       -0.1521368E-04
   maximum displ.:     0.1034691 α      in ANC's #1, #2, #4, ...

........................................................................
.............................. CYCLE   29 ..............................
........................................................................

 iter      E             dE          RMSdq      gap      omega  full diag
   1    -32.0763754 -0.320764E+02  0.493E-02    3.64       0.0  T
   2    -32.0763756 -0.183917E-06  0.289E-02    3.64       1.0  T
   3    -32.0763755  0.758025E-07  0.311E-03    3.64       6.3  T
   4    -32.0763756 -0.111555E-06  0.989E-04    3.64      19.8  T
   5    -32.0763756 -0.136844E-07  0.395E-04    3.64      49.7  T
   6    -32.0763756 -0.269866E-08  0.184E-04    3.64     106.7  T
   7    -32.0763756 -0.639346E-10  0.447E-05    3.64     438.4  T
   8    -32.0763756 -0.294165E-10  0.151E-05    3.64    1296.0  T
   9    -32.0763756 -0.220268E-11  0.714E-06    3.64    2746.6  T
  10    -32.0763756 -0.127898E-12  0.164E-06    3.64   11944.4  T
     SCC iter.                  ...        0 min,  0.074 sec
     gradient                   ...        0 min,  0.002 sec
 * total energy  :   -31.5553912 Eh     change       -0.2066450E-04 Eh
   gradient norm :     0.0003966 Eh/α   predicted    -0.7666567E-05 ( -62.90%)
   displ. norm   :     0.1280315 α      lambda       -0.1516384E-04
   maximum displ.:     0.1020092 α      in ANC's #1, #2, #4, ...

........................................................................
.............................. CYCLE   30 ..............................
........................................................................

 iter      E             dE          RMSdq      gap      omega  full diag
   1    -32.0765501 -0.320766E+02  0.454E-02    3.64       0.0  T
   2    -32.0765502 -0.160462E-06  0.266E-02    3.64       1.0  T
   3    -32.0765502  0.224049E-07  0.231E-03    3.64       8.5  T
   4    -32.0765503 -0.513434E-07  0.881E-04    3.64      22.3  T
   5    -32.0765503 -0.106598E-07  0.299E-04    3.64      65.5  T
   6    -32.0765503 -0.127071E-08  0.142E-04    3.64     138.2  T
   7    -32.0765503 -0.394991E-10  0.327E-05    3.64     600.4  T
   8    -32.0765503 -0.868283E-11  0.136E-05    3.64    1442.2  T
   9    -32.0765503 -0.111555E-11  0.636E-06    3.64    3081.8  T
  10    -32.0765503 -0.312639E-12  0.142E-06    3.64   13785.7  T
     SCC iter.                  ...        0 min,  0.074 sec
     gradient                   ...        0 min,  0.002 sec
 * total energy  :   -31.5554124 Eh     change       -0.2124442E-04 Eh
   gradient norm :     0.0004974 Eh/α   predicted    -0.7638076E-05 ( -64.05%)
   displ. norm   :     0.1281211 α      lambda       -0.1544071E-04
   maximum displ.:     0.1031924 α      in ANC's #1, #2, #4, ...

........................................................................
.............................. CYCLE   31 ..............................
........................................................................

 iter      E             dE          RMSdq      gap      omega  full diag
   1    -32.0766485 -0.320766E+02  0.440E-02    3.64       0.0  T
   2    -32.0766486 -0.126949E-06  0.259E-02    3.64       1.0  T
   3    -32.0766486  0.276300E-07  0.216E-03    3.64       9.1  T
   4    -32.0766486 -0.548455E-07  0.823E-04    3.64      23.8  T
   5    -32.0766487 -0.933591E-08  0.292E-04    3.64      67.1  T
   6    -32.0766487 -0.106765E-08  0.135E-04    3.64     144.8  T
   7    -32.0766487 -0.239808E-10  0.367E-05    3.64     534.7  T
   8    -32.0766487 -0.166054E-10  0.147E-05    3.64    1334.9  T
   9    -32.0766487 -0.157030E-11  0.594E-06    3.64    3303.8  T
  10    -32.0766487 -0.127898E-12  0.143E-06    3.64   13694.5  T
     SCC iter.                  ...        0 min,  0.074 sec
     gradient                   ...        0 min,  0.002 sec
 * total energy  :   -31.5554343 Eh     change       -0.2187077E-04 Eh
   gradient norm :     0.0005197 Eh/α   predicted    -0.7777749E-05 ( -64.44%)
   displ. norm   :     0.1208830 α      lambda       -0.1437319E-04
   maximum displ.:     0.0993279 α      in ANC's #1, #4, #2, ...

........................................................................
.............................. CYCLE   32 ..............................
........................................................................

 iter      E             dE          RMSdq      gap      omega  full diag
   1    -32.0766104 -0.320766E+02  0.413E-02    3.64       0.0  T
   2    -32.0766106 -0.125111E-06  0.243E-02    3.64       1.0  T
   3    -32.0766105  0.238824E-07  0.203E-03    3.64       9.7  T
   4    -32.0766106 -0.464539E-07  0.849E-04    3.64      23.1  T
   5    -32.0766106 -0.108464E-07  0.265E-04    3.64      74.0  T
   6    -32.0766106 -0.747136E-09  0.130E-04    3.64     150.8  T
   7    -32.0766106 -0.297078E-10  0.293E-05    3.64     669.8  T
   8    -32.0766106 -0.658673E-11  0.125E-05    3.64    1572.7  T
   9    -32.0766106 -0.966338E-12  0.567E-06    3.64    3457.5  T
  10    -32.0766106 -0.149214E-12  0.131E-06    3.64   14991.1  T
     SCC iter.                  ...        0 min,  0.074 sec
     gradient                   ...        0 min,  0.002 sec
 * total energy  :   -31.5554543 Eh     change       -0.2002999E-04 Eh
   gradient norm :     0.0004527 Eh/α   predicted    -0.7233890E-05 ( -63.88%)
   displ. norm   :     0.0996038 α      lambda       -0.1125779E-04
   maximum displ.:     0.0839563 α      in ANC's #1, #4, #10, ...

........................................................................
.............................. CYCLE   33 ..............................
........................................................................

 iter      E             dE          RMSdq      gap      omega  full diag
   1    -32.0765909 -0.320766E+02  0.342E-02    3.64       0.0  T
   2    -32.0765910 -0.827339E-07  0.201E-02    3.64       1.0  T
   3    -32.0765910  0.127870E-07  0.156E-03    3.64      12.6  T
   4    -32.0765910 -0.270668E-07  0.711E-04    3.64      27.6  T
   5    -32.0765910 -0.778893E-08  0.201E-04    3.64      97.7  T
   6    -32.0765910 -0.315282E-09  0.998E-05    3.64     196.5  T
   7    -32.0765910 -0.216787E-10  0.203E-05    3.64     966.2  T
   8    -32.0765910 -0.179057E-11  0.914E-06    3.64    2146.4  T
   9    -32.0765910 -0.753175E-12  0.312E-06    3.64    6288.4  T
     SCC iter.                  ...        0 min,  0.073 sec
     gradient                   ...        0 min,  0.002 sec
 * total energy  :   -31.5554699 Eh     change       -0.1557396E-04 Eh
   gradient norm :     0.0003756 Eh/α   predicted    -0.5654381E-05 ( -63.69%)
   displ. norm   :     0.0764336 α      lambda       -0.8348083E-05
   maximum displ.:     0.0669268 α      in ANC's #1, #4, #6, ...

........................................................................
.............................. CYCLE   34 ..............................
........................................................................

 iter      E             dE          RMSdq      gap      omega  full diag
   1    -32.0766581 -0.320767E+02  0.268E-02    3.64       0.0  T
   2    -32.0766581 -0.518799E-07  0.157E-02    3.64       1.2  T
   3    -32.0766581  0.767810E-08  0.125E-03    3.64      15.6  T
   4    -32.0766581 -0.173682E-07  0.539E-04    3.64      36.4  T
   5    -32.0766581 -0.438630E-08  0.162E-04    3.64     121.4  T
   6    -32.0766581 -0.220652E-09  0.823E-05    3.64     238.3  T
   7    -32.0766581 -0.140901E-10  0.147E-05    3.64    1336.1  T
   8    -32.0766581 -0.117240E-11  0.623E-06    3.64    3148.2  T
   9    -32.0766581 -0.227374E-12  0.317E-06    3.64    6179.3  T
     SCC iter.                  ...        0 min,  0.073 sec
     gradient                   ...        0 min,  0.002 sec
 * total energy  :   -31.5554816 Eh     change       -0.1168811E-04 Eh
   gradient norm :     0.0002909 Eh/α   predicted    -0.4185498E-05 ( -64.19%)
   displ. norm   :     0.0570027 α      lambda       -0.6206392E-05
   maximum displ.:     0.0518898 α      in ANC's #1, #4, #6, ...

........................................................................
.............................. CYCLE   35 ..............................
........................................................................

 iter      E             dE          RMSdq      gap      omega  full diag
   1    -32.0766555 -0.320767E+02  0.209E-02    3.64       0.0  T
   2    -32.0766555 -0.314531E-07  0.123E-02    3.64       1.6  T
   3    -32.0766555  0.830134E-08  0.104E-03    3.64      18.8  T
   4    -32.0766555 -0.138627E-07  0.423E-04    3.64      46.4  T
   5    -32.0766555 -0.286949E-08  0.116E-04    3.64     169.4  T
   6    -32.0766555 -0.144667E-09  0.586E-05    3.64     334.5  T
   7    -32.0766555 -0.702016E-11  0.111E-05    3.64    1774.4  T
   8    -32.0766555 -0.753175E-12  0.466E-06    3.64    4204.3  T
   9    -32.0766555 -0.106581E-12  0.168E-06    3.64   11639.1  T
     SCC iter.                  ...        0 min,  0.081 sec
     gradient                   ...        0 min,  0.002 sec
 * total energy  :   -31.5554904 Eh     change       -0.8863431E-05 Eh
   gradient norm :     0.0002594 Eh/α   predicted    -0.3108197E-05 ( -64.93%)
   displ. norm   :     0.0454143 α      lambda       -0.5099875E-05
   maximum displ.:     0.0423597 α      in ANC's #1, #4, #6, ...

........................................................................
.............................. CYCLE   36 ..............................
........................................................................

 iter      E             dE          RMSdq      gap      omega  full diag
   1    -32.0766469 -0.320766E+02  0.168E-02    3.64       0.0  T
   2    -32.0766469 -0.169809E-07  0.989E-03    3.64       2.0  T
   3    -32.0766469  0.215583E-08  0.727E-04    3.64      27.0  T
   4    -32.0766469 -0.639286E-08  0.279E-04    3.64      70.4  T
   5    -32.0766469 -0.997723E-09  0.942E-05    3.64     208.2  T
   6    -32.0766469 -0.866720E-10  0.479E-05    3.64     409.0  T
   7    -32.0766469 -0.489564E-11  0.643E-06    3.64    3048.8  T
   8    -32.0766469 -0.994760E-13  0.305E-06    3.64    6419.6  T
     SCC iter.                  ...        0 min,  0.073 sec
     gradient                   ...        0 min,  0.002 sec
 * total energy  :   -31.5554978 Eh     change       -0.7360712E-05 Eh
   gradient norm :     0.0002256 Eh/α   predicted    -0.2552762E-05 ( -65.32%)
   displ. norm   :     0.0418350 α      lambda       -0.4721936E-05
   maximum displ.:     0.0392997 α      in ANC's #1, #3, #2, ...

........................................................................
.............................. CYCLE   37 ..............................
........................................................................

 iter      E             dE          RMSdq      gap      omega  full diag
   1    -32.0766745 -0.320767E+02  0.158E-02    3.64       0.0  T
   2    -32.0766745 -0.124464E-07  0.926E-03    3.64       2.1  T
   3    -32.0766745  0.185574E-08  0.647E-04    3.64      30.3  T
   4    -32.0766745 -0.547217E-08  0.228E-04    3.64      85.9  T
   5    -32.0766745 -0.648583E-09  0.838E-05    3.64     233.9  T
   6    -32.0766745 -0.722409E-10  0.416E-05    3.64     471.7  T
   7    -32.0766745 -0.333955E-11  0.696E-06    3.64    2819.0  T
   8    -32.0766745 -0.198952E-12  0.304E-06    3.64    6455.5  T
     SCC iter.                  ...        0 min,  0.073 sec
     gradient                   ...        0 min,  0.002 sec
 * total energy  :   -31.5555046 Eh     change       -0.6833264E-05 Eh
   gradient norm :     0.0002042 Eh/α   predicted    -0.2364723E-05 ( -65.39%)
   displ. norm   :     0.0419460 α      lambda       -0.4603249E-05
   maximum displ.:     0.0392254 α      in ANC's #1, #2, #3, ...

........................................................................
.............................. CYCLE   38 ..............................
........................................................................

 iter      E             dE          RMSdq      gap      omega  full diag
   1    -32.0766506 -0.320767E+02  0.161E-02    3.64       0.0  T
   2    -32.0766506 -0.148050E-07  0.945E-03    3.64       2.1  T
   3    -32.0766506  0.311226E-08  0.746E-04    3.64      26.3  T
   4    -32.0766506 -0.715578E-08  0.244E-04    3.64      80.5  T
   5    -32.0766506 -0.692097E-09  0.957E-05    3.64     205.0  T
   6    -32.0766506 -0.125880E-09  0.475E-05    3.64     412.6  T
   7    -32.0766506 -0.512301E-11  0.797E-06    3.64    2461.3  T
   8    -32.0766506 -0.184741E-12  0.300E-06    3.64    6544.6  T
     SCC iter.                  ...        0 min,  0.073 sec
     gradient                   ...        0 min,  0.002 sec
 * total energy  :   -31.5555112 Eh     change       -0.6604313E-05 Eh
   gradient norm :     0.0002080 Eh/α   predicted    -0.2304133E-05 ( -65.11%)
   displ. norm   :     0.0433559 α      lambda       -0.4496368E-05
   maximum displ.:     0.0402629 α      in ANC's #1, #2, #10, ...

........................................................................
.............................. CYCLE   39 ..............................
........................................................................

 iter      E             dE          RMSdq      gap      omega  full diag
   1    -32.0766185 -0.320766E+02  0.166E-02    3.64       0.0  T
   2    -32.0766185 -0.127318E-07  0.977E-03    3.64       2.0  T
   3    -32.0766185  0.790983E-09  0.689E-04    3.64      28.5  T
   4    -32.0766185 -0.496105E-08  0.206E-04    3.64      95.3  T
   5    -32.0766185 -0.323759E-09  0.951E-05    3.64     206.2  T
   6    -32.0766185 -0.108422E-09  0.451E-05    3.64     434.6  T
   7    -32.0766185 -0.412825E-11  0.765E-06    3.64    2563.7  T
   8    -32.0766185 -0.447642E-12  0.334E-06    3.64    5865.8  T
     SCC iter.                  ...        0 min,  0.073 sec
     gradient                   ...        0 min,  0.002 sec
 * total energy  :   -31.5555177 Eh     change       -0.6428448E-05 Eh
   gradient norm :     0.0002107 Eh/α   predicted    -0.2251666E-05 ( -64.97%)
   displ. norm   :     0.0448294 α      lambda       -0.4368352E-05
   maximum displ.:     0.0414990 α      in ANC's #1, #2, #10, ...

........................................................................
.............................. CYCLE   40 ..............................
........................................................................

 iter      E             dE          RMSdq      gap      omega  full diag
   1    -32.0766447 -0.320766E+02  0.172E-02    3.64       0.0  T
   2    -32.0766448 -0.157746E-07  0.101E-02    3.64       1.9  T
   3    -32.0766448  0.194586E-08  0.775E-04    3.64      25.3  T
   4    -32.0766448 -0.660410E-08  0.241E-04    3.64      81.3  T
   5    -32.0766448 -0.509992E-09  0.107E-04    3.64     183.5  T
   6    -32.0766448 -0.159666E-09  0.510E-05    3.64     384.4  T
   7    -32.0766448 -0.558487E-11  0.927E-06    3.64    2115.7  T
   8    -32.0766448 -0.540012E-12  0.404E-06    3.64    4858.8  T
     SCC iter.                  ...        0 min,  0.073 sec
     gradient                   ...        0 min,  0.002 sec
 * total energy  :   -31.5555239 Eh     change       -0.6267900E-05 Eh
   gradient norm :     0.0002068 Eh/α   predicted    -0.2187434E-05 ( -65.10%)
   displ. norm   :     0.0463778 α      lambda       -0.4278382E-05
   maximum displ.:     0.0425417 α      in ANC's #1, #2, #10, ...

........................................................................
.............................. CYCLE   41 ..............................
........................................................................

 iter      E             dE          RMSdq      gap      omega  full diag
   1    -32.0766131 -0.320766E+02  0.180E-02    3.64       0.0  T
   2    -32.0766131 -0.184562E-07  0.106E-02    3.64       1.9  T
   3    -32.0766131  0.334636E-08  0.921E-04    3.64      21.3  T
   4    -32.0766131 -0.855695E-08  0.252E-04    3.64      78.0  T
   5    -32.0766131 -0.484505E-09  0.118E-04    3.64     165.5  T
   6    -32.0766131 -0.223096E-09  0.539E-05    3.64     364.2  T
   7    -32.0766131 -0.569855E-11  0.870E-06    3.64    2254.2  T
   8    -32.0766131 -0.255795E-12  0.347E-06    3.64    5647.4  T
     SCC iter.                  ...        0 min,  0.073 sec
     gradient                   ...        0 min,  0.002 sec
 * total energy  :   -31.5555301 Eh     change       -0.6172531E-05 Eh
   gradient norm :     0.0002434 Eh/α   predicted    -0.2142221E-05 ( -65.29%)
   displ. norm   :     0.0497579 α      lambda       -0.4448215E-05
   maximum displ.:     0.0451221 α      in ANC's #1, #2, #10, ...

........................................................................
.............................. CYCLE   42 ..............................
........................................................................

 iter      E             dE          RMSdq      gap      omega  full diag
   1    -32.0766152 -0.320766E+02  0.190E-02    3.64       0.0  T
   2    -32.0766152 -0.207161E-07  0.111E-02    3.64       1.8  T
   3    -32.0766152  0.533589E-09  0.910E-04    3.64      21.6  T
   4    -32.0766152 -0.627611E-08  0.261E-04    3.64      75.1  T
   5    -32.0766152 -0.372033E-09  0.123E-04    3.64     159.8  T
   6    -32.0766152 -0.192394E-09  0.579E-05    3.64     338.5  T
   7    -32.0766152 -0.820677E-11  0.112E-05    3.64    1745.9  T
   8    -32.0766152 -0.916600E-12  0.457E-06    3.64    4287.1  T
   9    -32.0766152 -0.248690E-12  0.236E-06    3.64    8317.3  T
     SCC iter.                  ...        0 min,  0.073 sec
     gradient                   ...        0 min,  0.002 sec
 * total energy  :   -31.5555366 Eh     change       -0.6452582E-05 Eh
   gradient norm :     0.0002430 Eh/α   predicted    -0.2227820E-05 ( -65.47%)
   displ. norm   :     0.0581012 α      lambda       -0.5082721E-05
   maximum displ.:     0.0518153 α      in ANC's #1, #2, #3, ...
 * RMSD in coord.:     0.3346688 α      energy gain  -0.3603638E-03 Eh

generating ANC from model Hessian ...
Using Lindh-Hessian (1995)
 Shifting diagonal of input Hessian by   9.196186914159687E-003
 Lowest  eigenvalues of input Hessian
    0.000000    0.000000    0.000000    0.000000    0.000000    0.000000
    0.010000    0.010264    0.010789    0.011312    0.012090    0.012683
    0.015157    0.017090    0.018477    0.019490    0.024375    0.024545
 Highest eigenvalues
    1.364777    1.553147    1.576171    1.880544    1.987453    2.006076
 

........................................................................
.............................. CYCLE   43 ..............................
........................................................................

 iter      E             dE          RMSdq      gap      omega  full diag
   1    -32.0766394 -0.320766E+02  0.219E-02    3.64       0.0  T
   2    -32.0766394 -0.308778E-07  0.129E-02    3.64       1.5  T
   3    -32.0766394  0.768907E-08  0.119E-03    3.64      16.5  T
   4    -32.0766394 -0.154882E-07  0.348E-04    3.64      56.3  T
   5    -32.0766394 -0.122587E-08  0.150E-04    3.64     130.4  T
   6    -32.0766394 -0.378677E-09  0.675E-05    3.64     290.7  T
   7    -32.0766394 -0.783018E-11  0.133E-05    3.64    1469.6  T
   8    -32.0766394 -0.102318E-11  0.589E-06    3.64    3330.6  T
   9    -32.0766394 -0.277112E-12  0.307E-06    3.64    6394.7  T
     SCC iter.                  ...        0 min,  0.073 sec
     gradient                   ...        0 min,  0.002 sec
 * total energy  :   -31.5555440 Eh     change       -0.7393799E-05 Eh
   gradient norm :     0.0002343 Eh/α   predicted     0.0000000E+00 (-100.00%)
   displ. norm   :     0.0203558 α      lambda       -0.8224857E-07
   maximum displ.:     0.0191656 α      in ANC's #1, #3, #5, ...

........................................................................
.............................. CYCLE   44 ..............................
........................................................................

 iter      E             dE          RMSdq      gap      omega  full diag
   1    -32.0767383 -0.320767E+02  0.717E-03    3.64       0.0  T
   2    -32.0767383 -0.811951E-08  0.419E-03    3.64       4.7  T
   3    -32.0767383  0.137246E-08  0.653E-04    3.64      30.1  T
   4    -32.0767383 -0.242456E-08  0.188E-04    3.64     104.1  T
   5    -32.0767383 -0.262901E-09  0.948E-05    3.64     206.9  T
   6    -32.0767383 -0.167375E-09  0.371E-05    3.64     529.3  T
   7    -32.0767383 -0.245848E-11  0.925E-06    3.64    2120.2  T
   8    -32.0767383 -0.177636E-12  0.280E-06    3.64    7012.9  T
     SCC iter.                  ...        0 min,  0.073 sec
     gradient                   ...        0 min,  0.002 sec
 * total energy  :   -31.5555468 Eh     change       -0.2802905E-05 Eh
   gradient norm :     0.0001774 Eh/α   predicted    -0.9983395E-06 ( -64.38%)
   displ. norm   :     0.0280993 α      lambda       -0.2505723E-05
   maximum displ.:     0.0238313 α      in ANC's #1, #3, #4, ...

........................................................................
.............................. CYCLE   45 ..............................
........................................................................

 iter      E             dE          RMSdq      gap      omega  full diag
   1    -32.0767791 -0.320768E+02  0.898E-03    3.64       0.0  T
   2    -32.0767791 -0.724561E-08  0.530E-03    3.64       3.7  T
   3    -32.0767791  0.262809E-08  0.677E-04    3.64      29.0  T
   4    -32.0767791 -0.432588E-08  0.165E-04    3.64     118.9  T
   5    -32.0767791 -0.151893E-09  0.801E-05    3.64     244.7  T
   6    -32.0767791 -0.127180E-09  0.321E-05    3.64     611.5  T
   7    -32.0767791 -0.297007E-11  0.935E-06    3.64    2097.1  T
   8    -32.0767791 -0.703437E-12  0.414E-06    3.64    4733.8  T
     SCC iter.                  ...        0 min,  0.073 sec
     gradient                   ...        0 min,  0.002 sec
 * total energy  :   -31.5555503 Eh     change       -0.3592725E-05 Eh
   gradient norm :     0.0002354 Eh/α   predicted    -0.1253713E-05 ( -65.10%)
   displ. norm   :     0.0412391 α      lambda       -0.3403676E-05
   maximum displ.:     0.0331438 α      in ANC's #1, #3, #4, ...

........................................................................
.............................. CYCLE   46 ..............................
........................................................................

 iter      E             dE          RMSdq      gap      omega  full diag
   1    -32.0767317 -0.320767E+02  0.128E-02    3.64       0.0  T
   2    -32.0767317 -0.123011E-07  0.755E-03    3.64       2.6  T
   3    -32.0767317  0.191915E-08  0.605E-04    3.64      32.4  T
   4    -32.0767317 -0.398229E-08  0.286E-04    3.64      68.7  T
   5    -32.0767317 -0.123392E-08  0.814E-05    3.64     240.9  T
   6    -32.0767317 -0.493188E-10  0.406E-05    3.64     482.6  T
   7    -32.0767317 -0.406430E-11  0.876E-06    3.64    2238.5  T
   8    -32.0767317 -0.291323E-12  0.351E-06    3.64    5581.8  T
     SCC iter.                  ...        0 min,  0.073 sec
     gradient                   ...        0 min,  0.002 sec
 * total energy  :   -31.5555551 Eh     change       -0.4766622E-05 Eh
   gradient norm :     0.0001828 Eh/α   predicted    -0.1704038E-05 ( -64.25%)
   displ. norm   :     0.0506109 α      lambda       -0.3772954E-05
   maximum displ.:     0.0406248 α      in ANC's #1, #3, #4, ...

........................................................................
.............................. CYCLE   47 ..............................
........................................................................

 iter      E             dE          RMSdq      gap      omega  full diag
   1    -32.0767126 -0.320767E+02  0.165E-02    3.64       0.0  T
   2    -32.0767126 -0.265477E-07  0.965E-03    3.64       2.0  T
   3    -32.0767126  0.312265E-08  0.900E-04    3.64      21.8  T
   4    -32.0767126 -0.687555E-08  0.406E-04    3.64      48.3  T
   5    -32.0767126 -0.204356E-08  0.116E-04    3.64     169.5  T
   6    -32.0767126 -0.170083E-09  0.532E-05    3.64     368.9  T
   7    -32.0767126 -0.960654E-11  0.138E-05    3.64    1424.8  T
   8    -32.0767126 -0.461853E-12  0.619E-06    3.64    3168.5  T
   9    -32.0767126 -0.348166E-12  0.251E-06    3.64    7825.9  T
     SCC iter.                  ...        0 min,  0.073 sec
     gradient                   ...        0 min,  0.002 sec
 * total energy  :   -31.5555603 Eh     change       -0.5169538E-05 Eh
   gradient norm :     0.0001801 Eh/α   predicted    -0.1889270E-05 ( -63.45%)
   displ. norm   :     0.0502184 α      lambda       -0.3474850E-05
   maximum displ.:     0.0412081 α      in ANC's #1, #4, #3, ...

........................................................................
.............................. CYCLE   48 ..............................
........................................................................

 iter      E             dE          RMSdq      gap      omega  full diag
   1    -32.0767051 -0.320767E+02  0.165E-02    3.64       0.0  T
   2    -32.0767051 -0.260079E-07  0.967E-03    3.64       2.0  T
   3    -32.0767051  0.190259E-08  0.870E-04    3.64      22.5  T
   4    -32.0767051 -0.539865E-08  0.393E-04    3.64      50.0  T
   5    -32.0767051 -0.214499E-08  0.114E-04    3.64     172.3  T
   6    -32.0767051 -0.166025E-09  0.523E-05    3.64     375.0  T
   7    -32.0767051 -0.346745E-11  0.154E-05    3.64    1270.6  T
   8    -32.0767051 -0.123634E-11  0.560E-06    3.64    3501.4  T
   9    -32.0767051 -0.326850E-12  0.252E-06    3.64    7780.1  T
     SCC iter.                  ...        0 min,  0.073 sec
     gradient                   ...        0 min,  0.002 sec
 * total energy  :   -31.5555651 Eh     change       -0.4785152E-05 Eh
   gradient norm :     0.0001945 Eh/α   predicted    -0.1740456E-05 ( -63.63%)
   displ. norm   :     0.0404907 α      lambda       -0.2787541E-05
[...]
         :::::::::::::::::::::::::::::::::::::::::::::::::::::

           ------------------------------------------------- 
          |                Numerical Hessian                |
           ------------------------------------------------- 
step length          :   0.00500
SCC accuracy         :   0.30000
Hessian scale factor :   1.00000
frozen atoms in %    :   0.00000    0
RMS gradient         :   0.00005
estimated CPU  time      1.14 min
estimated wall time      0.14 min

writing file <hessian>.

 projected vibrational frequencies (cm⁻¹)
eigval :       -0.00    -0.00    -0.00     0.00     0.00     0.00
eigval :       24.08    66.59    88.83   113.57   161.89   172.27
eigval :      200.45   222.13   249.47   265.31   311.89   362.35
eigval :      366.96   391.38   474.31   585.82   648.44   659.45
eigval :      679.34   689.58   737.05   760.39   769.90   872.63
eigval :      895.80   925.77   931.49   967.52   983.13   995.46
eigval :     1013.72  1017.25  1063.82  1077.65  1085.14  1115.17
eigval :     1123.70  1181.85  1204.07  1223.49  1230.45  1251.47
eigval :     1267.97  1280.65  1317.18  1408.05  1412.94  1421.37
eigval :     1449.55  1452.23  1461.10  1496.38  1499.38  1505.27
eigval :     1505.92  1577.83  1589.13  2936.36  2941.60  2950.21
eigval :     2956.75  3011.47  3012.18  3023.91  3025.95  3034.60
eigval :     3041.57  3056.78  3067.63  3074.47  3086.85  3094.24
           -------------------------------------------------
          |                Property Printout                |
           -------------------------------------------------

    * Orbital Energies and Occupations

         #    Occupation            Energy/Eh            Energy/eV
      -------------------------------------------------------------
         1        2.0000           -0.6588106             -17.9271
       ...           ...                  ...                  ...
        18        2.0000           -0.4752329             -12.9317
        19        2.0000           -0.4741813             -12.9031
        20        2.0000           -0.4670913             -12.7102
        21        2.0000           -0.4609800             -12.5439
        22        2.0000           -0.4564820             -12.4215
        23        2.0000           -0.4433531             -12.0643
        24        2.0000           -0.4383595             -11.9284
        25        2.0000           -0.4241262             -11.5411
        26        2.0000           -0.4159773             -11.3193
        27        2.0000           -0.4075176             -11.0891
        28        2.0000           -0.4028153             -10.9612
        29        2.0000           -0.3996889             -10.8761
        30        2.0000           -0.3639545              -9.9037 (HOMO)
        31                         -0.2299314              -6.2568 (LUMO)
        32                         -0.2214870              -6.0270
        33                         -0.1555428              -4.2325
        34                         -0.1499135              -4.0794
        35                         -0.0931559              -2.5349
        36                          0.0042092               0.1145
        37                          0.0487761               1.3273
        38                          0.0970238               2.6402
        39                          0.1138031               3.0967
        40                          0.1210559               3.2941
        41                          0.1303863               3.5480
       ...                                ...                  ...
        64                          0.7750788              21.0910
      -------------------------------------------------------------
                  HL-Gap            0.1340231 Eh            3.6470 eV
             Fermi-level           -0.2969429 Eh           -8.0802 eV

     #   Z          covCN         q      C6AA      α(0)
     1  15 P        3.025    -0.112   165.318    23.098
     2   6 C        3.748    -0.046    21.463     6.608
     3   1 H        0.926     0.040     2.443     2.444
     4   1 H        0.925     0.046     2.367     2.406
     5   6 C        3.819    -0.098    22.345     6.727
     6   1 H        0.925     0.041     2.435     2.440
     7   1 H        0.925     0.039     2.467     2.456
     8   1 H        0.925     0.031     2.569     2.507
     9   6 C        2.915     0.012    27.747     8.638
    10   6 C        3.028    -0.030    28.724     8.791
    11   6 C        2.958    -0.033    28.824     8.806
    12   6 C        2.918    -0.030    28.752     8.793
    13   6 C        2.920    -0.031    28.784     8.798
    14   6 C        2.920    -0.031    28.778     8.797
    15   1 H        0.925     0.034     2.530     2.487
    16   1 H        0.926     0.036     2.505     2.475
    17   1 H        0.926     0.028     2.608     2.526
    18   1 H        0.926     0.027     2.628     2.535
    19   1 H        0.926     0.028     2.618     2.530
    20   6 C        3.748    -0.046    21.465     6.608
    21   1 H        0.926     0.040     2.451     2.448
    22   1 H        0.926     0.042     2.424     2.435
    23   6 C        3.781    -0.096    22.349     6.735
    24   1 H        0.925     0.037     2.485     2.465
    25   1 H        0.925     0.038     2.472     2.459
    26   1 H        0.925     0.033     2.539     2.492

 Mol. C6AA /au·bohr⁶  :       7599.990560
 Mol. C8AA /au·bohr⁸  :     202589.755828
 Mol. α(0) /au        :        139.504350


Wiberg/Mayer (AO) data.
largest (>0.10) Wiberg bond orders for each atom

 ---------------------------------------------------------------------------
     #   Z sym  total        # sym  WBO       # sym  WBO       # sym  WBO
 ---------------------------------------------------------------------------
     1  15 P    3.375 --     2 C    1.029     9 C    1.019    20 C    1.013
     2   6 C    3.994 --     1 P    1.029     5 C    1.016     3 H    0.956
                             4 H    0.950
     3   1 H    0.998 --     2 C    0.956
     4   1 H    0.998 --     2 C    0.950
     5   6 C    3.997 --     2 C    1.016     6 H    0.985     8 H    0.985
                             7 H    0.983
     6   1 H    0.998 --     5 C    0.985
     7   1 H    0.998 --     5 C    0.983
     8   1 H    0.999 --     5 C    0.985
     9   6 C    3.982 --    11 C    1.404    10 C    1.389     1 P    1.019
                            14 C    0.106
    10   6 C    3.992 --    12 C    1.457     9 C    1.389    15 H    0.962
                            13 C    0.110
    11   6 C    3.993 --    13 C    1.439     9 C    1.404    16 H    0.961
                            12 C    0.107
    12   6 C    3.991 --    10 C    1.457    14 C    1.427    17 H    0.970
                            11 C    0.107
    13   6 C    3.993 --    14 C    1.442    11 C    1.439    18 H    0.970
                            10 C    0.110
    14   6 C    3.992 --    13 C    1.442    12 C    1.427    19 H    0.971
                             9 C    0.106
    15   1 H    0.999 --    10 C    0.962
    16   1 H    0.999 --    11 C    0.961
    17   1 H    0.999 --    12 C    0.970
    18   1 H    0.999 --    13 C    0.970
    19   1 H    0.999 --    14 C    0.971
    20   6 C    3.994 --     1 P    1.013    23 C    1.012    21 H    0.957
                            22 H    0.956
    21   1 H    0.998 --    20 C    0.957
    22   1 H    0.998 --    20 C    0.956
    23   6 C    3.997 --    20 C    1.012    24 H    0.985    25 H    0.983
                            26 H    0.983
    24   1 H    0.999 --    23 C    0.985
    25   1 H    0.999 --    23 C    0.983
    26   1 H    0.999 --    23 C    0.983
 ---------------------------------------------------------------------------

Topologies differ in total number of bonds
Writing topology from bond orders to xtbtopo.mol

molecular dipole:
                 x           y           z       tot (Debye)
 q only:        0.209       0.237      -0.061
   full:        0.297       0.578       0.055       1.656
molecular quadrupole (traceless):
                xx          xy          yy          xz          yz          zz
 q only:        1.898       0.651      -1.856      -1.346      -2.391      -0.042
  q+dip:        5.538       1.275      -5.640      -1.772      -3.404       0.102
   full:        4.357       1.445      -3.785      -1.996      -5.138      -0.573

           -------------------------------------------------
          |                Geometry Summary                 |
           -------------------------------------------------

      molecular mass/u    :      166.2002322
   center of mass at/Å    :        1.1792686       0.7310033      -2.1344746
  moments of inertia/u·Å² :        0.3621692E+03   0.7152259E+03   0.8848642E+03
rotational constants/cm⁻¹ :        0.4654629E-01   0.2356966E-01   0.1905110E-01

 * 24 selected distances

     #   Z          #   Z                                           value/Å
     1  15 P        2   6 C                                       1.8645234 (max)
     2   6 C        3   1 H                                       1.0941777
     2   6 C        4   1 H                                       1.0922228
     2   6 C        5   6 C                                       1.5244989
     5   6 C        6   1 H                                       1.0880284
     5   6 C        7   1 H                                       1.0883171
     5   6 C        8   1 H                                       1.0892386
     9   6 C       10   6 C                                       1.3939531
     9   6 C       11   6 C                                       1.3891855
    10   6 C       12   6 C                                       1.3808563
    11   6 C       13   6 C                                       1.3846485
    12   6 C       14   6 C                                       1.3857292
    13   6 C       14   6 C                                       1.3834871
    10   6 C       15   1 H                                       1.0818466
    11   6 C       16   1 H                                       1.0792497 (min)
    12   6 C       17   1 H                                       1.0806269
    13   6 C       18   1 H                                       1.0809470
    14   6 C       19   1 H                                       1.0801727
    20   6 C       21   1 H                                       1.0940708
    20   6 C       22   1 H                                       1.0934291
    20   6 C       23   6 C                                       1.5224427
    23   6 C       24   1 H                                       1.0870806
    23   6 C       25   1 H                                       1.0885926
    23   6 C       26   1 H                                       1.0890887

 * 3 distinct bonds (by element types)

   Z      Z             #   av. dist./Å        max./Å        min./Å
   1 H    6 C          15     1.0871393     1.0941777     1.0792497
   6 C    6 C           8     1.4206002     1.5244989     1.3808563
   6 C   15 P           1     1.8645234     1.8645234     1.8645234

           -------------------------------------------------
          |               Frequency Printout                |
           -------------------------------------------------
 projected vibrational frequencies (cm⁻¹)
eigval :       -0.00    -0.00    -0.00     0.00     0.00     0.00
eigval :       24.08    66.59    88.83   113.57   161.89   172.27
eigval :      200.45   222.13   249.47   265.31   311.89   362.35
eigval :      366.96   391.38   474.31   585.82   648.44   659.45
eigval :      679.34   689.58   737.05   760.39   769.90   872.63
eigval :      895.80   925.77   931.49   967.52   983.13   995.46
eigval :     1013.72  1017.25  1063.82  1077.65  1085.14  1115.17
eigval :     1123.70  1181.85  1204.07  1223.49  1230.45  1251.47
eigval :     1267.97  1280.65  1317.18  1408.05  1412.94  1421.37
eigval :     1449.55  1452.23  1461.10  1496.38  1499.38  1505.27
eigval :     1505.92  1577.83  1589.13  2936.36  2941.60  2950.21
eigval :     2956.75  3011.47  3012.18  3023.91  3025.95  3034.60
eigval :     3041.57  3056.78  3067.63  3074.47  3086.85  3094.24
 reduced masses (amu)
   1: 13.38   2: 14.54   3: 12.77   4: 11.09   5: 14.95   6: 11.14   7:  9.79   8:  8.95
   9:  8.93  10: 10.02  11:  5.18  12:  8.11  13:  7.17  14:  6.78  15:  6.95  16:  8.65
  17: 12.94  18: 12.57  19: 10.99  20: 18.17  21: 12.99  22: 11.18  23: 13.68  24: 11.48
  25: 14.10  26: 12.68  27:  3.27  28:  6.85  29:  4.75  30:  3.30  31:  3.57  32:  4.14
  33:  2.96  34: 10.47  35:  3.15  36:  3.19  37:  3.63  38:  4.42  39:  9.52  40:  9.07
  41:  8.33  42:  8.48  43:  4.41  44:  1.30  45:  1.91  46:  3.62  47:  3.26  48:  4.19
  49:  4.14  50:  3.45  51: 11.93  52:  2.91  53:  2.94  54:  8.53  55:  3.37  56:  2.93
  57:  5.96  58:  1.53  59:  1.56  60:  1.57  61:  1.53  62: 11.43  63: 11.44  64:  1.93
  65:  1.98  66:  1.51  67:  1.52  68:  1.82  69:  1.86  70:  1.90  71:  1.72  72:  1.43
  73:  1.57  74:  1.79  75:  1.77  76:  1.83  77:  1.89  78:  1.86
 IR intensities (km·mol⁻¹)
   1:  0.04   2:  0.14   3:  0.02   4:  0.02   5:  0.07   6:  0.17   7:  0.13   8:  0.11
   9:  0.12  10:  0.18  11:  0.11  12:  0.15  13:  0.09  14:  0.21  15:  0.08  16:  0.73
  17:  0.26  18:  0.74  19:  0.26  20:  0.42  21:  5.19  22:  0.04  23: 11.18  24:  9.23
  25:  8.88  26:  9.93  27: 18.86  28: 36.57  29: 18.76  30:  0.04  31:  0.08  32:  0.04
  33:  0.00  34:  1.76  35:  4.91  36:  1.97  37:  1.30  38:  3.57  39:  6.78  40:  7.37
  41:  0.22  42:  1.22  43:  0.06  44:  0.03  45:  0.62  46:  2.07  47:  2.10  48:  6.29
  49:  6.68  50:  0.79  51:  0.38  52:  1.76  53:  2.40  54:  0.80  55:  0.75  56:  0.82
  57:  0.04  58:  2.34  59:  1.24  60:  0.97  61:  2.65  62:  0.43  63:  4.71  64:  3.94
  65: 42.59  66: 15.17  67: 21.19  68: 55.25  69: 45.64  70: 23.24  71: 30.60  72: 16.98
  73: 24.08  74: 15.76  75:  7.65  76: 51.42  77: 77.85  78: 22.02
 Raman intensities (Ä⁴*amu⁻¹)
   1:  0.00   2:  0.00   3:  0.00   4:  0.00   5:  0.00   6:  0.00   7:  0.00   8:  0.00
   9:  0.00  10:  0.00  11:  0.00  12:  0.00  13:  0.00  14:  0.00  15:  0.00  16:  0.00
  17:  0.00  18:  0.00  19:  0.00  20:  0.00  21:  0.00  22:  0.00  23:  0.00  24:  0.00
  25:  0.00  26:  0.00  27:  0.00  28:  0.00  29:  0.00  30:  0.00  31:  0.00  32:  0.00
  33:  0.00  34:  0.00  35:  0.00  36:  0.00  37:  0.00  38:  0.00  39:  0.00  40:  0.00
  41:  0.00  42:  0.00  43:  0.00  44:  0.00  45:  0.00  46:  0.00  47:  0.00  48:  0.00
  49:  0.00  50:  0.00  51:  0.00  52:  0.00  53:  0.00  54:  0.00  55:  0.00  56:  0.00
  57:  0.00  58:  0.00  59:  0.00  60:  0.00  61:  0.00  62:  0.00  63:  0.00  64:  0.00
  65:  0.00  66:  0.00  67:  0.00  68:  0.00  69:  0.00  70:  0.00  71:  0.00  72:  0.00
  73:  0.00  74:  0.00  75:  0.00  76:  0.00  77:  0.00  78:  0.00
 output can be read by thermo (or use thermo option).
 writing <g98.out> molden fake output.
 recommended (thermochemical) frequency scaling factor: 1.0
           -------------------------------------------------
          |             Thermodynamic Functions             |
           -------------------------------------------------

Refinement of some symmetry elements was terminated before convergence was reached.
Some symmetry elements may remain unidentified.
Molecule has no symmetry elements
It seems to be the C1 point group
c1  symmetry found (for desy threshold:  0.10E+00) used in thermo

          ...................................................
          :                      SETUP                      :
          :.................................................:
          :  # frequencies                          72      :
          :  # imaginary freq.                       0      :
          :  linear?                             false      :
          :  only rotor calc.                    false      :
          :  symmetry                               c1      :
          :  rotational number                       1      :
          :  scaling factor                  1.0000000      :
          :  rotor cutoff                   50.0000000 cm⁻¹ :
          :  imag. cutoff                  -20.0000000 cm⁻¹ :
          :.................................................:

    mode    ω/cm⁻¹     T·S(HO)/kcal·mol⁻¹    T·S(FR)/kcal·mol⁻¹   T·S(vib)
   ------------------------------------------------------------------------
       1     24.08    -1.86802 (  5.11%)    -1.27264 ( 94.89%)    -1.30305
       2     66.59    -1.26764 ( 75.88%)    -0.97155 ( 24.12%)    -1.19622
       3     88.83    -1.09886 ( 90.88%)    -0.88620 (  9.12%)    -1.07946
       4    113.57    -0.95616 ( 96.38%)    -0.81345 (  3.62%)    -0.95099
       5    161.89    -0.75360 ( 99.10%)    -0.70845 (  0.90%)    -0.75319
       6    172.27    -0.71871 ( 99.30%)    -0.69004 (  0.70%)    -0.71851
       7    200.45    -0.63474 ( 99.61%)    -0.64516 (  0.39%)    -0.63478
       8    222.13    -0.57892 ( 99.74%)    -0.61475 (  0.26%)    -0.57901
       9    249.47    -0.51708 ( 99.84%)    -0.58036 (  0.16%)    -0.51718
      10    265.31    -0.48495 ( 99.87%)    -0.56213 (  0.13%)    -0.48505
   ------------------------------------------------------------------------

   temp. (K)  partition function   enthalpy   heat capacity  entropy
                                   cal/mol     cal/K/mol   cal/K/mol   J/K/mol
 298.15  VIB  0.138E+05             6110.300     39.504     37.220
         ROT  0.116E+07              888.752      2.981     30.725
         INT  0.160E+11             6999.053     42.485     67.945
         TR   0.207E+28             1481.254      4.968     41.214
         TOT                        8480.3065    47.4530   109.1583   456.7184

       T/K    H(0)-H(T)+PV         H(T)/Eh          T*S/Eh         G(T)/Eh
   ------------------------------------------------------------------------
    298.15    0.135142E-01    0.232493E+00    0.518646E-01    0.180628E+00
   ------------------------------------------------------------------------

         :::::::::::::::::::::::::::::::::::::::::::::::::::::
         ::                  THERMODYNAMIC                  ::
         :::::::::::::::::::::::::::::::::::::::::::::::::::::
         :: total free energy         -31.375028231384 Eh   ::
         ::.................................................::
         :: total energy              -31.555656606738 Eh   ::
         :: zero point energy           0.218978789545 Eh   ::
         :: G(RRHO) w/o ZPVE           -0.038350414192 Eh   ::
         :: G(RRHO) contrib.            0.180628375354 Eh   ::
         :::::::::::::::::::::::::::::::::::::::::::::::::::::

optimized geometry written to: xtbopt.xyz


           -------------------------------------------------
          | TOTAL ENERGY              -31.555656606738 Eh   |
          | TOTAL ENTHALPY            -31.323163588536 Eh   |
          | TOTAL FREE ENERGY         -31.375028231384 Eh   |
          | GRADIENT NORM               0.000049618527 Eh/α |
          | HOMO-LUMO GAP               3.646953961438 eV   |
           -------------------------------------------------

------------------------------------------------------------------------
 * finished run on 2025/07/14 at 11:28:10.361     
------------------------------------------------------------------------
 total:
 * wall-time:     0 d,  0 h,  0 min, 10.722 sec
 *  cpu-time:     0 d,  0 h,  1 min, 55.377 sec
 * ratio c/w:    10.761 speedup
 SCF:
 * wall-time:     0 d,  0 h,  0 min,  0.087 sec
 *  cpu-time:     0 d,  0 h,  0 min,  1.042 sec
 * ratio c/w:    11.954 speedup
 ANC optimizer:
 * wall-time:     0 d,  0 h,  0 min,  7.312 sec
 *  cpu-time:     0 d,  0 h,  1 min, 27.605 sec
 * ratio c/w:    11.981 speedup
 analytical hessian:
 * wall-time:     0 d,  0 h,  0 min,  3.313 sec
 *  cpu-time:     0 d,  0 h,  0 min, 26.628 sec
 * ratio c/w:     8.038 speedup

