      -----------------------------------------------------------      
     |                   =====================                   |     
     |                           x T B                           |     
     |                   =====================                   |     
     |                         S. Grimme                         |     
     |          Mulliken Center for Theoretical Chemistry        |     
     |                    University of Bonn                     |     
      -----------------------------------------------------------      

   * xtb version 6.7.0 (08769fc) compiled by 'albert@albert-system' on 2024-03-04

   xtb is free software: you can redistribute it and/or modify it under
   the terms of the GNU Lesser General Public License as published by
   the Free Software Foundation, either version 3 of the License, or
   (at your option) any later version.
   
   xtb is distributed in the hope that it will be useful,
   but WITHOUT ANY WARRANTY; without even the implied warranty of
   MERCHANTABILITY or FITNESS FOR A PARTICULAR PURPOSE.  See the
   GNU Lesser General Public License for more details.
   
   Cite this work as:
   * C. Bannwarth, E. Caldeweyher, S. Ehlert, A. Hansen, P. Pracht,
     J. Seibert, S. Spicher, S. Grimme, WIREs Comput. Mol. Sci., 2020, 11,
     e01493. DOI: 10.1002/wcms.1493
   
   for GFN2-xTB:
   * C. Bannwarth, S. Ehlert and S. Grimme., J. Chem. Theory Comput., 2019,
     15, 1652-1671. DOI: 10.1021/acs.jctc.8b01176
   for GFN1-xTB:
   * S. Grimme, C. Bannwarth, P. Shushkov, J. Chem. Theory Comput., 2017,
     13, 1989-2009. DOI: 10.1021/acs.jctc.7b00118
   for GFN0-xTB:
   * P. Pracht, E. Caldeweyher, S. Ehlert, S. Grimme, ChemRxiv, 2019, preprint.
     DOI: 10.26434/chemrxiv.8326202.v1
   for GFN-FF:
   * S. Spicher and S. Grimme, Angew. Chem. Int. Ed., 2020, 59, 15665-15673.
     DOI: 10.1002/anie.202004239
   
   for ALPB and GBSA implicit solvation:
   * S. Ehlert, M. Stahn, S. Spicher, S. Grimme, J. Chem. Theory Comput.,
     2021, 17, 4250-4261. DOI: 10.1021/acs.jctc.1c00471
   
   for ddCOSMO and CPCM-X implicit solvation:
   * M. Stahn, S. Ehlert, S. Grimme, J. Phys. Chem. A,
     2023, XX, XXXX-XXXX. DOI: 10.1021/acs.jpca.3c04382
   
   for DFT-D4:
   * E. Caldeweyher, C. Bannwarth and S. Grimme, J. Chem. Phys., 2017,
     147, 034112. DOI: 10.1063/1.4993215
   * E. Caldeweyher, S. Ehlert, A. Hansen, H. Neugebauer, S. Spicher,
     C. Bannwarth and S. Grimme, J. Chem. Phys., 2019, 150, 154122.
     DOI: 10.1063/1.5090222
   * E. Caldeweyher, J.-M. Mewes, S. Ehlert and S. Grimme, Phys. Chem. Chem. Phys.
     2020, 22, 8499-8512. DOI: 10.1039/D0CP00502A
   
   for sTDA-xTB:
   * S. Grimme and C. Bannwarth, J. Chem. Phys., 2016, 145, 054103.
     DOI: 10.1063/1.4959605
   
   in the mass-spec context:
   * V. Asgeirsson, C. Bauer and S. Grimme, Chem. Sci., 2017, 8, 4879.
     DOI: 10.1039/c7sc00601b
   * J. Koopman and S. Grimme, ACS Omega 2019, 4, 12, 15120-15133.
     DOI: 10.1021/acsomega.9b02011
   
   for metadynamics refer to:
   * S. Grimme, J. Chem. Theory Comput., 2019, 155, 2847-2862
     DOI: 10.1021/acs.jctc.9b00143
   
   for SPH calculations refer to:
   * S. Spicher and S. Grimme, J. Chem. Theory Comput., 2021, 17, 1701-1714
     DOI: 10.1021/acs.jctc.0c01306
   
   for ONIOM refer to:
   * C. Plett, A. Katbashev, S. Ehlert, S. Grimme, M. Bursch,
     Phys. Chem. Chem. Phys., 2023, 25, 17860-17868. DOI: 10.1039/D3CP02178E
   
   for DIPRO refer to:
   * J. Kohn, N. Gildemeister, S. Grimme, D. Fazzi, A. Hansen,
     J. Chem. Phys., 2023, just accepted.
   
   for PTB refer to:
   * S. Grimme, M. Mueller, A. Hansen, J. Chem. Phys., 2023, 158, 124111.
     DOI: 10.1063/5.0137838
   
   with help from (in alphabetical order)
   P. Atkinson, C. Bannwarth, F. Bohle, G. Brandenburg, E. Caldeweyher
   M. Checinski, S. Dohm, S. Ehlert, S. Ehrlich, I. Gerasimov, C. Hölzer
   A. Katbashev, J. Kohn, J. Koopman, C. Lavigne, S. Lehtola, F. März, M. Müller,
   F. Musil, H. Neugebauer, J. Pisarek, C. Plett, P. Pracht, F. Pultar,
   J. Seibert, P. Shushkov, S. Spicher, M. Stahn, M. Steiner, T. Strunk,
   J. Stückrath, T. Rose, and J. Unsleber
   
 * started run on 2025/07/14 at 11:35:47.510     
   ID    Z sym.   atoms
    1   15 P      1
    2    6 C      2, 5, 9-14, 20, 23
    3    1 H      3, 4, 6-8, 15-19, 21, 22, 24-26

           -------------------------------------------------
          |                Calculation Setup                |
           -------------------------------------------------

          program call               : /home/minenky/programs/xtb/xtb-dist/bin/xtb m1_00_PEt2Ph-PBE0-D3-TZ-uniMM_6.xyz --charge 0 --T --ohess extreme --cycles 5000 --acc 0.01 --iterations 5000
          coordinate file            : m1_00_PEt2Ph-PBE0-D3-TZ-uniMM_6.xyz
          omp threads                :                    12

########################################################################
[WARNING] Please study the warnings concerning your input carefully
-1- prog_main_parseArguments: Unknown option '--T' provided
########################################################################

           -------------------------------------------------
          |                 G F N 2 - x T B                 |
           -------------------------------------------------

        Reference                      10.1021/acs.jctc.8b01176
      * Hamiltonian:
        H0-scaling (s, p, d)           1.850000    2.230000    2.230000
        zeta-weighting                 0.500000
      * Dispersion:
        s8                             2.700000
        a1                             0.520000
        a2                             5.000000
        s9                             5.000000
      * Repulsion:
        kExp                           1.500000    1.000000
        rExp                           1.000000
      * Coulomb:
        alpha                          2.000000
        third order                    shell-resolved
        anisotropic                    true
        a3                             3.000000
        a5                             4.000000
        cn-shift                       1.200000
        cn-exp                         4.000000
        max-rad                        5.000000


          ...................................................
          :                      SETUP                      :
          :.................................................:
          :  # basis functions                  65          :
          :  # atomic orbitals                  64          :
          :  # shells                           38          :
          :  # electrons                        60          :
          :  max. iterations                  5000          :
          :  Hamiltonian                  GFN2-xTB          :
          :  restarted?                      false          :
          :  GBSA solvation                  false          :
          :  PC potential                    false          :
          :  electronic temp.          300.0000000     K    :
          :  accuracy                    0.0100000          :
          :  -> integral cutoff          0.4500000E+02      :
          :  -> integral neglect         0.1000000E-09      :
          :  -> SCF convergence          0.1000000E-07 Eh   :
          :  -> wf. convergence          0.1000000E-05 e    :
          :  Broyden damping             0.4000000          :
          :  net charge                          0          :
          :  unpaired electrons                  0          :
          ...................................................

 iter      E             dE          RMSdq      gap      omega  full diag
   1    -32.0142170 -0.320142E+02  0.406E+00    4.00       0.0  T
   2    -32.0600239 -0.458069E-01  0.248E+00    3.45       1.0  T
   3    -32.0593410  0.682872E-03  0.888E-01    3.14       1.0  T
   4    -32.0606845 -0.134347E-02  0.302E-01    3.17       1.0  T
   5    -32.0621557 -0.147118E-02  0.127E-01    3.22       1.0  T
   6    -32.0623801 -0.224435E-03  0.410E-02    3.21       1.0  T
   7    -32.0623899 -0.979295E-05  0.167E-02    3.22       1.2  T
   8    -32.0623904 -0.439872E-06  0.757E-03    3.22       2.6  T
   9    -32.0623909 -0.579285E-06  0.156E-03    3.22      12.6  T
  10    -32.0623910 -0.281480E-07  0.735E-04    3.22      26.7  T
  11    -32.0623910  0.907647E-10  0.342E-04    3.22      57.3  T
  12    -32.0623910 -0.967383E-09  0.528E-05    3.22     371.5  T
  13    -32.0623910 -0.500222E-11  0.243E-05    3.22     807.6  T
  14    -32.0623910 -0.247979E-11  0.114E-05    3.22    1719.9  T
  15    -32.0623910 -0.738964E-12  0.323E-06    3.22    6065.5  T
  16    -32.0623910 -0.120792E-12  0.107E-06    3.22   18398.1  T

   *** convergence criteria satisfied after 16 iterations ***

         #    Occupation            Energy/Eh            Energy/eV
      -------------------------------------------------------------
         1        2.0000           -0.6592665             -17.9396
       ...           ...                  ...                  ...
        24        2.0000           -0.4389553             -11.9446
        25        2.0000           -0.4233701             -11.5205
        26        2.0000           -0.4217508             -11.4764
        27        2.0000           -0.4094852             -11.1427
        28        2.0000           -0.4043772             -11.0037
        29        2.0000           -0.3987159             -10.8496
        30        2.0000           -0.3539719              -9.6321 (HOMO)
        31                         -0.2357472              -6.4150 (LUMO)
        32                         -0.2244285              -6.1070
        33                         -0.1455851              -3.9616
        34                         -0.1387455              -3.7755
        35                         -0.0891596              -2.4262
       ...                                ...                  ...
        64                          0.7953940              21.6438
      -------------------------------------------------------------
                  HL-Gap            0.1182247 Eh            3.2171 eV
             Fermi-level           -0.2948595 Eh           -8.0235 eV

 SCC (total)                   0 d,  0 h,  0 min,  0.086 sec
 SCC setup                      ...        0 min,  0.000 sec (  0.152%)
 Dispersion                     ...        0 min,  0.000 sec (  0.141%)
 classical contributions        ...        0 min,  0.000 sec (  0.013%)
 integral evaluation            ...        0 min,  0.002 sec (  2.186%)
 iterations                     ...        0 min,  0.082 sec ( 95.314%)
 molecular gradient             ...        0 min,  0.002 sec (  2.086%)
 printout                       ...        0 min,  0.000 sec (  0.090%)

         :::::::::::::::::::::::::::::::::::::::::::::::::::::
         ::                     SUMMARY                     ::
         :::::::::::::::::::::::::::::::::::::::::::::::::::::
         :: total energy             -31.547649482607 Eh    ::
         :: gradient norm              0.050023822518 Eh/a0 ::
         :: HOMO-LUMO gap              3.217057542111 eV    ::
         ::.................................................::
         :: SCC energy               -32.062187115897 Eh    ::
         :: -> isotropic ES            0.004151776781 Eh    ::
         :: -> anisotropic ES          0.005819075453 Eh    ::
         :: -> anisotropic XC          0.022452803917 Eh    ::
         :: -> dispersion             -0.023170991480 Eh    ::
         :: repulsion energy           0.514537633290 Eh    ::
         :: add. restraining           0.000000000000 Eh    ::
         :: total charge               0.000000000000 e     ::
         :::::::::::::::::::::::::::::::::::::::::::::::::::::

      ----------------------------------------------------------- 
     |                   =====================                   |
     |                        A N C O P T                        |
     |                   =====================                   |
     |               Approximate Normal Coordinate               |
     |                Rational Function Optimizer                |
      ----------------------------------------------------------- 
      ----------------------------------------------------------- 
     |                   =====================                   |
     |                        A N C O P T                        |
     |                   =====================                   |
     |               Approximate Normal Coordinate               |
     |                Rational Function Optimizer                |
      ----------------------------------------------------------- 

          ...................................................
          :                      SETUP                      :
          :.................................................:
          :   optimization level           extreme          :
          :   max. optcycles                  5000          :
          :   ANC micro-cycles                  20          :
          :   degrees of freedom                72          :
          :.................................................:
          :   RF solver                   davidson          :
          :   write xtbopt.log                true          :
          :   linear?                        false          :
          :   energy convergence         0.5000000E-07 Eh   :
          :   grad. convergence          0.5000000E-04 Eh/α :
          :   maxmium RF displ.          1.0000000          :
          :   Hlow (freq-cutoff)         0.1000000E-01      :
          :   Hmax (freq-cutoff)         5.0000000          :
          :   S6 in model hess.         20.0000000          :
          ...................................................

generating ANC from model Hessian ...
Using Lindh-Hessian (1995)
 Shifting diagonal of input Hessian by   9.123454354477962E-003
 Lowest  eigenvalues of input Hessian
    0.000000    0.000000    0.000000    0.000000    0.000000    0.000000
    0.010000    0.010130    0.010567    0.011194    0.011740    0.012649
    0.015240    0.017088    0.018741    0.019157    0.023937    0.024154
 Highest eigenvalues
    1.346796    1.534289    1.561834    1.863361    1.965415    1.985599
 

........................................................................
.............................. CYCLE    1 ..............................
........................................................................

 iter      E             dE          RMSdq      gap      omega  full diag
   1    -32.0623910 -0.320624E+02  0.411E-07    3.22       0.0  T
   2    -32.0623910  0.213163E-13  0.254E-07    3.22   77229.2  T
   3    -32.0623910  0.142109E-13  0.137E-07    3.22  100000.0  T
     SCC iter.                  ...        0 min,  0.073 sec
     gradient                   ...        0 min,  0.002 sec
 * total energy  :   -31.5476495 Eh     change       -0.7105427E-14 Eh
   gradient norm :     0.0500238 Eh/α   predicted     0.0000000E+00 (-100.00%)
   displ. norm   :     0.3415390 α      lambda       -0.9267123E-02
   maximum displ.:     0.2194313 α      in ANC's #13, #8, #43, ...

........................................................................
.............................. CYCLE    2 ..............................
........................................................................

 iter      E             dE          RMSdq      gap      omega  full diag
   1    -32.0671158 -0.320671E+02  0.440E-01    3.53       0.0  T
   2    -32.0674046 -0.288808E-03  0.190E-01    3.61       1.0  T
   3    -32.0674352 -0.306137E-04  0.671E-02    3.65       1.0  T
   4    -32.0674291  0.608303E-05  0.333E-02    3.65       1.0  T
   5    -32.0674410 -0.118371E-04  0.770E-03    3.65       2.5  T
   6    -32.0674419 -0.918792E-06  0.396E-03    3.65       5.0  T
   7    -32.0674420 -0.542540E-07  0.119E-03    3.65      16.4  T
   8    -32.0674420 -0.788029E-08  0.450E-04    3.65      43.6  T
   9    -32.0674420 -0.303411E-08  0.145E-04    3.65     135.5  T
  10    -32.0674420 -0.131934E-09  0.693E-05    3.65     283.0  T
  11    -32.0674420 -0.165699E-10  0.284E-05    3.65     689.5  T
  12    -32.0674420 -0.604672E-11  0.971E-06    3.65    2019.3  T
  13    -32.0674420 -0.639488E-13  0.343E-06    3.65    5709.4  T
     SCC iter.                  ...        0 min,  0.076 sec
     gradient                   ...        0 min,  0.002 sec
 * total energy  :   -31.5526044 Eh     change       -0.4954933E-02 Eh
   gradient norm :     0.0140946 Eh/α   predicted    -0.5174308E-02 (   4.43%)
   displ. norm   :     0.2291166 α      lambda       -0.1353452E-02
   maximum displ.:     0.1313195 α      in ANC's #6, #13, #9, ...

........................................................................
.............................. CYCLE    3 ..............................
........................................................................

 iter      E             dE          RMSdq      gap      omega  full diag
   1    -32.0719018 -0.320719E+02  0.102E-01    3.66       0.0  T
   2    -32.0719043 -0.252315E-05  0.616E-02    3.65       1.0  T
   3    -32.0719035  0.770444E-06  0.924E-03    3.65       2.1  T
   4    -32.0719044 -0.884175E-06  0.489E-03    3.65       4.0  T
   5    -32.0719047 -0.295381E-06  0.133E-03    3.65      14.8  T
   6    -32.0719047 -0.320964E-07  0.559E-04    3.65      35.1  T
   7    -32.0719047 -0.356422E-09  0.184E-04    3.65     106.3  T
   8    -32.0719047 -0.240583E-09  0.683E-05    3.65     287.0  T
   9    -32.0719047 -0.329123E-10  0.317E-05    3.65     617.8  T
  10    -32.0719047 -0.193268E-11  0.129E-05    3.65    1525.4  T
  11    -32.0719047 -0.137135E-11  0.479E-06    3.65    4097.0  T
  12    -32.0719047  0.000000E+00  0.181E-06    3.65   10841.6  T
     SCC iter.                  ...        0 min,  0.074 sec
     gradient                   ...        0 min,  0.002 sec
 * total energy  :   -31.5535836 Eh     change       -0.9791602E-03 Eh
   gradient norm :     0.0065348 Eh/α   predicted    -0.7122517E-03 ( -27.26%)
   displ. norm   :     0.2748502 α      lambda       -0.7319975E-03
   maximum displ.:     0.1823995 α      in ANC's #6, #13, #9, ...

........................................................................
.............................. CYCLE    4 ..............................
........................................................................

 iter      E             dE          RMSdq      gap      omega  full diag
   1    -32.0739889 -0.320740E+02  0.955E-02    3.64       0.0  T
   2    -32.0739907 -0.184966E-05  0.588E-02    3.63       1.0  T
   3    -32.0739892  0.152380E-05  0.979E-03    3.63       2.0  T
   4    -32.0739909 -0.168255E-05  0.446E-03    3.63       4.4  T
   5    -32.0739911 -0.266022E-06  0.128E-03    3.63      15.3  T
   6    -32.0739912 -0.185215E-07  0.539E-04    3.63      36.4  T
   7    -32.0739912 -0.420087E-09  0.173E-04    3.63     113.6  T
   8    -32.0739912 -0.157051E-09  0.819E-05    3.63     239.4  T
   9    -32.0739912 -0.603677E-10  0.258E-05    3.63     758.9  T
  10    -32.0739912 -0.148503E-11  0.937E-06    3.63    2092.5  T
  11    -32.0739912 -0.198952E-12  0.404E-06    3.63    4855.3  T
     SCC iter.                  ...        0 min,  0.079 sec
     gradient                   ...        0 min,  0.002 sec
 * total energy  :   -31.5540462 Eh     change       -0.4626518E-03 Eh
   gradient norm :     0.0045086 Eh/α   predicted    -0.3936501E-03 ( -14.91%)
   displ. norm   :     0.1739351 α      lambda       -0.1920168E-03
   maximum displ.:     0.1215716 α      in ANC's #6, #1, #4, ...

........................................................................
.............................. CYCLE    5 ..............................
........................................................................

 iter      E             dE          RMSdq      gap      omega  full diag
   1    -32.0744094 -0.320744E+02  0.445E-02    3.63       0.0  T
   2    -32.0744098 -0.412475E-06  0.267E-02    3.62       1.0  T
   3    -32.0744095  0.266285E-06  0.408E-03    3.62       4.8  T
   4    -32.0744099 -0.311968E-06  0.181E-03    3.62      10.9  T
   5    -32.0744099 -0.446502E-07  0.717E-04    3.62      27.4  T
   6    -32.0744099 -0.330423E-08  0.319E-04    3.62      61.4  T
   7    -32.0744099 -0.181146E-09  0.719E-05    3.62     272.7  T
   8    -32.0744099 -0.324647E-10  0.384E-05    3.62     510.4  T
   9    -32.0744099 -0.947864E-11  0.120E-05    3.62    1635.4  T
  10    -32.0744099 -0.888178E-12  0.596E-06    3.62    3290.1  T
  11    -32.0744099 -0.234479E-12  0.200E-06    3.62    9787.3  T
     SCC iter.                  ...        0 min,  0.079 sec
     gradient                   ...        0 min,  0.002 sec
 * total energy  :   -31.5541881 Eh     change       -0.1419223E-03 Eh
   gradient norm :     0.0039091 Eh/α   predicted    -0.9892027E-04 ( -30.30%)
   displ. norm   :     0.1587259 α      lambda       -0.1311254E-03
   maximum displ.:     0.0991889 α      in ANC's #6, #1, #4, ...

........................................................................
.............................. CYCLE    6 ..............................
........................................................................

 iter      E             dE          RMSdq      gap      omega  full diag
   1    -32.0745660 -0.320746E+02  0.414E-02    3.62       0.0  T
   2    -32.0745665 -0.468424E-06  0.237E-02    3.62       1.0  T
   3    -32.0745664  0.752817E-07  0.393E-03    3.62       5.0  T
   4    -32.0745665 -0.134782E-06  0.117E-03    3.62      16.7  T
   5    -32.0745665 -0.128991E-07  0.668E-04    3.62      29.4  T
   6    -32.0745665 -0.348169E-08  0.283E-04    3.62      69.2  T
   7    -32.0745665  0.302407E-10  0.725E-05    3.62     270.6  T
   8    -32.0745665 -0.673452E-10  0.283E-05    3.62     693.1  T
   9    -32.0745665 -0.392930E-11  0.129E-05    3.62    1524.5  T
  10    -32.0745665 -0.973444E-12  0.708E-06    3.62    2768.7  T
  11    -32.0745665 -0.262901E-12  0.170E-06    3.62   11532.9  T
     SCC iter.                  ...        0 min,  0.088 sec
     gradient                   ...        0 min,  0.006 sec
 * total energy  :   -31.5542832 Eh     change       -0.9510022E-04 Eh
   gradient norm :     0.0020267 Eh/α   predicted    -0.6721571E-04 ( -29.32%)
   displ. norm   :     0.1281313 α      lambda       -0.6375289E-04
   maximum displ.:     0.0909979 α      in ANC's #1, #6, #3, ...

........................................................................
.............................. CYCLE    7 ..............................
........................................................................

 iter      E             dE          RMSdq      gap      omega  full diag
   1    -32.0744667 -0.320745E+02  0.357E-02    3.61       0.0  T
   2    -32.0744671 -0.332268E-06  0.203E-02    3.62       1.0  T
   3    -32.0744670  0.138202E-07  0.353E-03    3.62       5.6  T
   4    -32.0744671 -0.563996E-07  0.832E-04    3.62      23.6  T
   5    -32.0744671 -0.203104E-08  0.301E-04    3.62      65.2  T
   6    -32.0744671 -0.408704E-09  0.189E-04    3.62     103.9  T
   7    -32.0744671 -0.310223E-09  0.374E-05    3.62     524.1  T
   8    -32.0744671 -0.875389E-11  0.197E-05    3.62     997.9  T
   9    -32.0744671 -0.370193E-11  0.835E-06    3.62    2350.1  T
  10    -32.0744671 -0.227374E-12  0.351E-06    3.62    5585.1  T
     SCC iter.                  ...        0 min,  0.081 sec
     gradient                   ...        0 min,  0.002 sec
 * total energy  :   -31.5543302 Eh     change       -0.4698486E-04 Eh
   gradient norm :     0.0015651 Eh/α   predicted    -0.3240004E-04 ( -31.04%)
   displ. norm   :     0.1310475 α      lambda       -0.3511363E-04
   maximum displ.:     0.1037277 α      in ANC's #1, #3, #6, ...

........................................................................
.............................. CYCLE    8 ..............................
........................................................................

 iter      E             dE          RMSdq      gap      omega  full diag
   1    -32.0744781 -0.320745E+02  0.394E-02    3.62       0.0  T
   2    -32.0744784 -0.259334E-06  0.228E-02    3.62       1.0  T
   3    -32.0744784  0.382996E-07  0.336E-03    3.62       5.8  T
   4    -32.0744784 -0.692460E-07  0.106E-03    3.62      18.6  T
   5    -32.0744784 -0.971063E-08  0.396E-04    3.62      49.5  T
   6    -32.0744784 -0.249751E-08  0.171E-04    3.62     114.7  T
   7    -32.0744784 -0.873612E-10  0.509E-05    3.62     385.4  T
   8    -32.0744784 -0.216076E-10  0.160E-05    3.62    1223.9  T
   9    -32.0744784 -0.337508E-11  0.743E-06    3.62    2639.8  T
  10    -32.0744784 -0.220268E-12  0.269E-06    3.62    7295.3  T
     SCC iter.                  ...        0 min,  0.083 sec
     gradient                   ...        0 min,  0.002 sec
 * total energy  :   -31.5543751 Eh     change       -0.4488227E-04 Eh
   gradient norm :     0.0020217 Eh/α   predicted    -0.1769135E-04 ( -60.58%)
   displ. norm   :     0.0946344 α      lambda       -0.4367471E-04
   maximum displ.:     0.0701430 α      in ANC's #1, #3, #2, ...

........................................................................
.............................. CYCLE    9 ..............................
........................................................................

 iter      E             dE          RMSdq      gap      omega  full diag
   1    -32.0745604 -0.320746E+02  0.281E-02    3.62       0.0  T
   2    -32.0745605 -0.689615E-07  0.164E-02    3.62       1.2  T
   3    -32.0745605  0.162139E-07  0.164E-03    3.62      12.0  T
   4    -32.0745605 -0.246740E-07  0.703E-04    3.62      27.9  T
   5    -32.0745605 -0.806214E-08  0.211E-04    3.62      92.7  T
   6    -32.0745605 -0.279755E-09  0.100E-04    3.62     195.7  T
   7    -32.0745605 -0.217355E-10  0.297E-05    3.62     661.1  T
   8    -32.0745605 -0.864731E-11  0.932E-06    3.62    2104.6  T
   9    -32.0745605 -0.105871E-11  0.514E-06    3.62    3812.3  T
     SCC iter.                  ...        0 min,  0.080 sec
     gradient                   ...        0 min,  0.003 sec
 * total energy  :   -31.5544173 Eh     change       -0.4214695E-04 Eh
   gradient norm :     0.0019914 Eh/α   predicted    -0.2203508E-04 ( -47.72%)
   displ. norm   :     0.3267063 α      lambda       -0.1021216E-03
   maximum displ.:     0.2235095 α      in ANC's #1, #3, #4, ...

........................................................................
.............................. CYCLE   10 ..............................
........................................................................

 iter      E             dE          RMSdq      gap      omega  full diag
   1    -32.0740048 -0.320740E+02  0.919E-02    3.63       0.0  T
   2    -32.0740054 -0.576851E-06  0.539E-02    3.63       1.0  T
   3    -32.0740054  0.367363E-07  0.420E-03    3.63       4.7  T
   4    -32.0740055 -0.139033E-06  0.180E-03    3.63      10.9  T
   5    -32.0740056 -0.519536E-07  0.691E-04    3.63      28.4  T
   6    -32.0740056 -0.338803E-08  0.299E-04    3.63      65.5  T
   7    -32.0740056 -0.474316E-09  0.102E-04    3.63     193.1  T
   8    -32.0740056 -0.143721E-09  0.269E-05    3.63     729.6  T
   9    -32.0740056 -0.404299E-11  0.148E-05    3.63    1323.0  T
  10    -32.0740056 -0.165556E-11  0.336E-06    3.63    5844.5  T
  11    -32.0740056 -0.426326E-13  0.158E-06    3.63   12375.0  T
     SCC iter.                  ...        0 min,  0.083 sec
     gradient                   ...        0 min,  0.002 sec
 * total energy  :   -31.5545558 Eh     change       -0.1385838E-03 Eh
   gradient norm :     0.0031670 Eh/α   predicted    -0.5348549E-04 ( -61.41%)
   displ. norm   :     0.3773034 α      lambda       -0.1628265E-03
   maximum displ.:     0.2562591 α      in ANC's #1, #3, #4, ...

........................................................................
.............................. CYCLE   11 ..............................
........................................................................

 iter      E             dE          RMSdq      gap      omega  full diag
   1    -32.0727055 -0.320727E+02  0.103E-01    3.63       0.0  T
   2    -32.0727061 -0.673239E-06  0.606E-02    3.63       1.0  T
   3    -32.0727062 -0.276773E-07  0.503E-03    3.63       3.9  T
   4    -32.0727063 -0.148021E-06  0.155E-03    3.63      12.6  T
   5    -32.0727063 -0.531895E-08  0.886E-04    3.63      22.1  T
   6    -32.0727063 -0.931529E-08  0.374E-04    3.63      52.4  T
   7    -32.0727063 -0.578524E-09  0.879E-05    3.63     223.1  T
   8    -32.0727063 -0.749125E-10  0.336E-05    3.63     583.7  T
   9    -32.0727063 -0.373035E-11  0.177E-05    3.63    1110.9  T
  10    -32.0727063 -0.223821E-11  0.370E-06    3.63    5297.1  T
  11    -32.0727063 -0.106581E-12  0.174E-06    3.63   11263.8  T
     SCC iter.                  ...        0 min,  0.086 sec
     gradient                   ...        0 min,  0.002 sec
 * total energy  :   -31.5546975 Eh     change       -0.1416147E-03 Eh
   gradient norm :     0.0053125 Eh/α   predicted    -0.9300603E-04 ( -34.32%)
   displ. norm   :     0.4984288 α      lambda       -0.2092291E-03
   maximum displ.:     0.3451324 α      in ANC's #1, #3, #4, ...

........................................................................
.............................. CYCLE   12 ..............................
........................................................................

 iter      E             dE          RMSdq      gap      omega  full diag
   1    -32.0704460 -0.320704E+02  0.139E-01    3.64       0.0  T
   2    -32.0704472 -0.119930E-05  0.813E-02    3.64       1.0  T
   3    -32.0704473 -0.388933E-07  0.754E-03    3.64       2.6  T
   4    -32.0704476 -0.297468E-06  0.207E-03    3.64       9.5  T
   5    -32.0704475  0.176728E-08  0.116E-03    3.64      16.9  T
   6    -32.0704476 -0.122240E-07  0.483E-04    3.64      40.6  T
   7    -32.0704476 -0.139521E-08  0.108E-04    3.64     181.2  T
   8    -32.0704476 -0.914540E-10  0.415E-05    3.64     473.1  T
   9    -32.0704476 -0.355271E-11  0.226E-05    3.64     866.9  T
  10    -32.0704476 -0.430589E-11  0.463E-06    3.64    4239.2  T
  11    -32.0704476 -0.142109E-12  0.223E-06    3.64    8804.1  T
     SCC iter.                  ...        0 min,  0.083 sec
     gradient                   ...        0 min,  0.002 sec
 * total energy  :   -31.5548400 Eh     change       -0.1425626E-03 Eh
   gradient norm :     0.0086734 Eh/α   predicted    -0.1306059E-03 (  -8.39%)
   displ. norm   :     0.2855894 α      lambda       -0.2049056E-03
   maximum displ.:     0.2111024 α      in ANC's #1, #3, #2, ...

........................................................................
.............................. CYCLE   13 ..............................
........................................................................

 iter      E             dE          RMSdq      gap      omega  full diag
   1    -32.0716465 -0.320716E+02  0.867E-02    3.64       0.0  T
   2    -32.0716469 -0.402606E-06  0.509E-02    3.64       1.0  T
   3    -32.0716469 -0.136597E-07  0.380E-03    3.64       5.2  T
   4    -32.0716470 -0.915959E-07  0.118E-03    3.64      16.6  T
   5    -32.0716470 -0.741032E-09  0.865E-04    3.64      22.7  T
   6    -32.0716470 -0.621497E-08  0.200E-04    3.64      97.9  T
   7    -32.0716470 -0.304539E-09  0.718E-05    3.64     273.0  T
   8    -32.0716470 -0.276970E-10  0.296E-05    3.64     662.2  T
   9    -32.0716470 -0.552092E-11  0.114E-05    3.64    1718.5  T
  10    -32.0716470 -0.241585E-12  0.367E-06    3.64    5346.9  T
  11    -32.0716470 -0.135003E-12  0.127E-06    3.64   15449.2  T
     SCC iter.                  ...        0 min,  0.079 sec
     gradient                   ...        0 min,  0.008 sec
 * total energy  :   -31.5550077 Eh     change       -0.1677205E-03 Eh
   gradient norm :     0.0070755 Eh/α   predicted    -0.1108118E-03 ( -33.93%)
   displ. norm   :     0.4031609 α      lambda       -0.3347210E-03
   maximum displ.:     0.2977510 α      in ANC's #1, #3, #2, ...

........................................................................
.............................. CYCLE   14 ..............................
........................................................................

 iter      E             dE          RMSdq      gap      omega  full diag
   1    -32.0746466 -0.320746E+02  0.134E-01    3.65       0.0  T
   2    -32.0746474 -0.783882E-06  0.788E-02    3.65       1.0  T
   3    -32.0746471  0.364314E-06  0.711E-03    3.65       2.8  T
   4    -32.0746477 -0.632768E-06  0.197E-03    3.65       9.9  T
   5    -32.0746477 -0.208846E-07  0.122E-03    3.65      16.1  T
   6    -32.0746477 -0.114143E-07  0.407E-04    3.65      48.2  T
   7    -32.0746477 -0.102663E-08  0.129E-04    3.65     152.2  T
   8    -32.0746477 -0.909708E-10  0.469E-05    3.65     418.0  T
   9    -32.0746477 -0.154401E-10  0.157E-05    3.65    1247.0  T
  10    -32.0746477 -0.419220E-12  0.601E-06    3.65    3260.5  T
  11    -32.0746477 -0.319744E-12  0.168E-06    3.65   11683.0  T
     SCC iter.                  ...        0 min,  0.078 sec
     gradient                   ...        0 min,  0.002 sec
 * total energy  :   -31.5552648 Eh     change       -0.2570284E-03 Eh
   gradient norm :     0.0039958 Eh/α   predicted    -0.1945641E-03 ( -24.30%)
   displ. norm   :     0.6962952 α      lambda       -0.3334719E-03
   maximum displ.:     0.4981013 α      in ANC's #1, #3, #2, ...

........................................................................
.............................. CYCLE   15 ..............................
........................................................................

 iter      E             dE          RMSdq      gap      omega  full diag
   1    -32.0704299 -0.320704E+02  0.218E-01    3.65       0.0  T
   2    -32.0704343 -0.441946E-05  0.127E-01    3.65       1.0  T
   3    -32.0704334  0.866604E-06  0.175E-02    3.65       1.1  T
   4    -32.0704353 -0.185206E-05  0.410E-03    3.65       4.8  T
   5    -32.0704353  0.224582E-07  0.265E-03    3.65       7.4  T
   6    -32.0704353 -0.574980E-07  0.106E-03    3.65      18.5  T
   7    -32.0704353 -0.268966E-08  0.218E-04    3.65      90.1  T
   8    -32.0704353 -0.428528E-09  0.611E-05    3.65     321.1  T
   9    -32.0704353 -0.293880E-10  0.331E-05    3.65     592.0  T
  10    -32.0704353 -0.638067E-11  0.120E-05    3.65    1632.3  T
  11    -32.0704353 -0.596856E-12  0.382E-06    3.65    5137.6  T
  12    -32.0704353 -0.284217E-13  0.129E-06    3.65   15259.4  T
     SCC iter.                  ...        0 min,  0.078 sec
     gradient                   ...        0 min,  0.002 sec
 * total energy  :   -31.5554231 Eh     change       -0.1583186E-03 Eh
   gradient norm :     0.0094976 Eh/α   predicted    -0.2475828E-03 (  56.38%)
   displ. norm   :     0.2406977 α      lambda       -0.4839155E-03
   maximum displ.:     0.1348000 α      in ANC's #1, #2, #9, ...

........................................................................
.............................. CYCLE   16 ..............................
........................................................................

 iter      E             dE          RMSdq      gap      omega  full diag
   1    -32.0773550 -0.320774E+02  0.959E-02    3.65       0.0  T
   2    -32.0773574 -0.238217E-05  0.558E-02    3.65       1.0  T
   3    -32.0773551  0.231853E-05  0.152E-02    3.65       1.3  T
   4    -32.0773580 -0.292150E-05  0.371E-03    3.65       5.3  T
   5    -32.0773580 -0.399622E-07  0.265E-03    3.65       7.4  T
   6    -32.0773581 -0.432223E-07  0.725E-04    3.65      27.0  T
   7    -32.0773581 -0.462177E-08  0.181E-04    3.65     108.3  T
   8    -32.0773581 -0.736762E-10  0.649E-05    3.65     302.1  T
   9    -32.0773581 -0.360743E-10  0.294E-05    3.65     667.6  T
  10    -32.0773581 -0.515854E-11  0.118E-05    3.65    1663.0  T
  11    -32.0773581 -0.136424E-11  0.378E-06    3.65    5185.5  T
  12    -32.0773581 -0.639488E-13  0.119E-06    3.65   16539.7  T
     SCC iter.                  ...        0 min,  0.076 sec
     gradient                   ...        0 min,  0.002 sec
 * total energy  :   -31.5556583 Eh     change       -0.2351607E-03 Eh
   gradient norm :     0.0054317 Eh/α   predicted    -0.2559782E-03 (   8.85%)
   displ. norm   :     0.4323749 α      lambda       -0.1859863E-03
   maximum displ.:     0.2981627 α      in ANC's #1, #3, #2, ...

........................................................................
.............................. CYCLE   17 ..............................
........................................................................

 iter      E             dE          RMSdq      gap      omega  full diag
   1    -32.0740925 -0.320741E+02  0.140E-01    3.65       0.0  T
   2    -32.0740943 -0.178939E-05  0.817E-02    3.65       1.0  T
   3    -32.0740943 -0.382065E-07  0.705E-03    3.65       2.8  T
   4    -32.0740946 -0.249870E-06  0.233E-03    3.65       8.4  T
   5    -32.0740946 -0.678885E-08  0.156E-03    3.65      12.6  T
   6    -32.0740946 -0.261889E-07  0.574E-04    3.65      34.1  T
   7    -32.0740946 -0.219892E-09  0.149E-04    3.65     131.7  T
   8    -32.0740946 -0.259348E-09  0.376E-05    3.65     522.0  T
   9    -32.0740946 -0.373745E-11  0.216E-05    3.65     909.1  T
  10    -32.0740946 -0.407852E-11  0.786E-06    3.65    2495.7  T
  11    -32.0740946 -0.177636E-12  0.222E-06    3.65    8822.6  T
     SCC iter.                  ...        0 min,  0.077 sec
     gradient                   ...        0 min,  0.002 sec
 * total energy  :   -31.5557721 Eh     change       -0.1138024E-03 Eh
   gradient norm :     0.0063566 Eh/α   predicted    -0.1103799E-03 (  -3.01%)
   displ. norm   :     0.1796148 α      lambda       -0.8857809E-04
   maximum displ.:     0.1108323 α      in ANC's #1, #2, #4, ...

........................................................................
.............................. CYCLE   18 ..............................
........................................................................

 iter      E             dE          RMSdq      gap      omega  full diag
   1    -32.0740178 -0.320740E+02  0.596E-02    3.65       0.0  T
   2    -32.0740182 -0.446360E-06  0.343E-02    3.65       1.0  T
   3    -32.0740182  0.890942E-07  0.413E-03    3.65       4.8  T
   4    -32.0740182 -0.904746E-07  0.193E-03    3.65      10.2  T
   5    -32.0740183 -0.753861E-07  0.422E-04    3.65      46.4  T
   6    -32.0740183 -0.129707E-08  0.249E-04    3.65      78.9  T
   7    -32.0740183 -0.193040E-09  0.709E-05    3.65     276.6  T
   8    -32.0740183 -0.960156E-10  0.195E-05    3.65    1006.3  T
   9    -32.0740183 -0.193268E-11  0.894E-06    3.65    2192.8  T
  10    -32.0740183 -0.682121E-12  0.326E-06    3.65    6018.7  T
     SCC iter.                  ...        0 min,  0.077 sec
     gradient                   ...        0 min,  0.002 sec
 * total energy  :   -31.5558425 Eh     change       -0.7040548E-04 Eh
   gradient norm :     0.0056993 Eh/α   predicted    -0.4571913E-04 ( -35.06%)
   displ. norm   :     0.2355741 α      lambda       -0.1430311E-03
   maximum displ.:     0.1259468 α      in ANC's #1, #2, #4, ...

........................................................................
.............................. CYCLE   19 ..............................
........................................................................

 iter      E             dE          RMSdq      gap      omega  full diag
   1    -32.0761399 -0.320761E+02  0.808E-02    3.66       0.0  T
   2    -32.0761413 -0.141816E-05  0.457E-02    3.66       1.0  T
   3    -32.0761410  0.319610E-06  0.909E-03    3.66       2.2  T
   4    -32.0761414 -0.425125E-06  0.280E-03    3.66       7.0  T
   5    -32.0761415 -0.101315E-06  0.964E-04    3.66      20.4  T
   6    -32.0761416 -0.168497E-07  0.401E-04    3.66      48.8  T
   7    -32.0761416 -0.634643E-09  0.121E-04    3.66     162.6  T
   8    -32.0761416 -0.117133E-09  0.444E-05    3.66     441.2  T
   9    -32.0761416 -0.306031E-10  0.175E-05    3.66    1118.9  T
  10    -32.0761416 -0.105871E-11  0.493E-06    3.66    3979.3  T
  11    -32.0761416 -0.248690E-12  0.155E-06    3.66   12676.7  T
     SCC iter.                  ...        0 min,  0.074 sec
     gradient                   ...        0 min,  0.002 sec
 * total energy  :   -31.5559255 Eh     change       -0.8299547E-04 Eh
   gradient norm :     0.0023327 Eh/α   predicted    -0.7548684E-04 (  -9.05%)
   displ. norm   :     0.3656470 α      lambda       -0.7007756E-04
   maximum displ.:     0.2371133 α      in ANC's #1, #2, #3, ...

........................................................................
.............................. CYCLE   20 ..............................
........................................................................

 iter      E             dE          RMSdq      gap      omega  full diag
   1    -32.0733651 -0.320734E+02  0.125E-01    3.65       0.0  T
   2    -32.0733667 -0.161014E-05  0.726E-02    3.66       1.0  T
   3    -32.0733666  0.115060E-06  0.999E-03    3.65       2.0  T
   4    -32.0733671 -0.452395E-06  0.241E-03    3.66       8.1  T
   5    -32.0733671 -0.108996E-08  0.131E-03    3.66      14.9  T
   6    -32.0733671 -0.755173E-08  0.565E-04    3.66      34.7  T
   7    -32.0733671 -0.143161E-08  0.124E-04    3.66     158.1  T
   8    -32.0733671 -0.249784E-09  0.321E-05    3.66     611.4  T
   9    -32.0733671 -0.109424E-11  0.184E-05    3.66    1065.1  T
  10    -32.0733671 -0.290612E-11  0.635E-06    3.66    3087.1  T
  11    -32.0733671 -0.270006E-12  0.194E-06    3.66   10105.8  T
     SCC iter.                  ...        0 min,  0.074 sec
     gradient                   ...        0 min,  0.002 sec
 * total energy  :   -31.5559128 Eh     change        0.1265849E-04 Eh
   gradient norm :     0.0058432 Eh/α   predicted    -0.3972446E-04 (-413.82%)
   displ. norm   :     0.1417643 α      lambda       -0.9495706E-04
   maximum displ.:     0.0988849 α      in ANC's #1, #3, #4, ...
 * RMSD in coord.:     0.8785635 α      energy gain  -0.8263316E-02 Eh

generating ANC from model Hessian ...
Using Lindh-Hessian (1995)
 Shifting diagonal of input Hessian by   9.131043357419802E-003
 Lowest  eigenvalues of input Hessian
    0.000000    0.000000    0.000000    0.000000    0.000000    0.000000
    0.010000    0.010069    0.010686    0.010996    0.011391    0.012560
    0.015084    0.016854    0.018410    0.018547    0.022200    0.024135
 Highest eigenvalues
    1.363249    1.553762    1.573132    1.881408    1.987440    2.003742
 

........................................................................
.............................. CYCLE   21 ..............................
........................................................................

 iter      E             dE          RMSdq      gap      omega  full diag
   1    -32.0760657 -0.320761E+02  0.483E-02    3.66       0.0  T
   2    -32.0760662 -0.482297E-06  0.274E-02    3.66       1.0  T
   3    -32.0760661  0.103374E-06  0.721E-03    3.66       2.7  T
   4    -32.0760663 -0.206601E-06  0.166E-03    3.66      11.8  T
   5    -32.0760663  0.380849E-08  0.880E-04    3.66      22.3  T
   6    -32.0760663 -0.643930E-08  0.359E-04    3.66      54.7  T
   7    -32.0760663 -0.484334E-09  0.105E-04    3.66     187.6  T
   8    -32.0760663 -0.560405E-10  0.205E-05    3.66     956.7  T
   9    -32.0760663 -0.237321E-11  0.105E-05    3.66    1862.4  T
  10    -32.0760663 -0.838440E-12  0.374E-06    3.66    5238.4  T
  11    -32.0760663 -0.106581E-12  0.125E-06    3.66   15655.5  T
     SCC iter.                  ...        0 min,  0.073 sec
     gradient                   ...        0 min,  0.002 sec
 * total energy  :   -31.5559597 Eh     change       -0.4690443E-04 Eh
   gradient norm :     0.0018318 Eh/α   predicted     0.0000000E+00 (-100.00%)
   displ. norm   :     0.0395006 α      lambda       -0.1403563E-04
   maximum displ.:     0.0228037 α      in ANC's #5, #3, #7, ...

........................................................................
.............................. CYCLE   22 ..............................
........................................................................

 iter      E             dE          RMSdq      gap      omega  full diag
   1    -32.0767193 -0.320767E+02  0.135E-02    3.66       0.0  T
   2    -32.0767194 -0.132748E-06  0.748E-03    3.66       2.6  T
   3    -32.0767194  0.727905E-08  0.223E-03    3.66       8.8  T
   4    -32.0767194 -0.163333E-07  0.843E-04    3.66      23.3  T
   5    -32.0767194 -0.327559E-08  0.380E-04    3.66      51.6  T
   6    -32.0767194 -0.215543E-08  0.134E-04    3.66     146.2  T
   7    -32.0767194 -0.632312E-10  0.414E-05    3.66     473.3  T
   8    -32.0767194 -0.180123E-10  0.104E-05    3.66    1880.2  T
   9    -32.0767194 -0.136424E-11  0.404E-06    3.66    4858.3  T
  10    -32.0767194 -0.135003E-12  0.196E-06    3.66    9984.4  T
     SCC iter.                  ...        0 min,  0.073 sec
     gradient                   ...        0 min,  0.002 sec
 * total energy  :   -31.5559752 Eh     change       -0.1549965E-04 Eh
   gradient norm :     0.0005169 Eh/α   predicted    -0.7026654E-05 ( -54.67%)
   displ. norm   :     0.0887917 α      lambda       -0.1736941E-04
   maximum displ.:     0.0521404 α      in ANC's #3, #5, #10, ...

........................................................................
.............................. CYCLE   23 ..............................
........................................................................

 iter      E             dE          RMSdq      gap      omega  full diag
   1    -32.0769428 -0.320769E+02  0.222E-02    3.66       0.0  T
   2    -32.0769429 -0.110858E-06  0.126E-02    3.66       1.6  T
   3    -32.0769429 -0.391785E-08  0.196E-03    3.66      10.0  T
   4    -32.0769429 -0.483638E-08  0.683E-04    3.66      28.7  T
   5    -32.0769429 -0.393970E-08  0.249E-04    3.66      78.7  T
   6    -32.0769429 -0.134328E-09  0.129E-04    3.66     151.5  T
   7    -32.0769429 -0.213241E-09  0.257E-05    3.66     764.0  T
   8    -32.0769429 -0.609646E-11  0.826E-06    3.66    2374.4  T
   9    -32.0769429 -0.930811E-12  0.394E-06    3.66    4973.6  T
     SCC iter.                  ...        0 min,  0.075 sec
     gradient                   ...        0 min,  0.002 sec
 * total energy  :   -31.5559936 Eh     change       -0.1843264E-04 Eh
   gradient norm :     0.0013122 Eh/α   predicted    -0.8719278E-05 ( -52.70%)
   displ. norm   :     0.0955562 α      lambda       -0.1236602E-04
   maximum displ.:     0.0608627 α      in ANC's #3, #5, #10, ...

........................................................................
.............................. CYCLE   24 ..............................
........................................................................

 iter      E             dE          RMSdq      gap      omega  full diag
   1    -32.0766843 -0.320767E+02  0.215E-02    3.67       0.0  T
   2    -32.0766844 -0.913096E-07  0.121E-02    3.67       1.6  T
   3    -32.0766844 -0.220235E-08  0.217E-03    3.67       9.1  T
   4    -32.0766844 -0.823853E-08  0.744E-04    3.67      26.4  T
   5    -32.0766844 -0.376697E-08  0.219E-04    3.67      89.4  T
   6    -32.0766844 -0.125091E-09  0.119E-04    3.67     164.9  T
   7    -32.0766844 -0.118703E-09  0.446E-05    3.67     439.7  T
   8    -32.0766844 -0.452616E-11  0.905E-06    3.67    2166.2  T
   9    -32.0766844 -0.234479E-12  0.384E-06    3.67    5108.0  T
     SCC iter.                  ...        0 min,  0.079 sec
     gradient                   ...        0 min,  0.002 sec
 * total energy  :   -31.5560063 Eh     change       -0.1270375E-04 Eh
   gradient norm :     0.0011555 Eh/α   predicted    -0.6209043E-05 ( -51.12%)
   displ. norm   :     0.0691951 α      lambda       -0.7561480E-05
   maximum displ.:     0.0487494 α      in ANC's #3, #10, #6, ...

........................................................................
.............................. CYCLE   25 ..............................
........................................................................

 iter      E             dE          RMSdq      gap      omega  full diag
   1    -32.0766724 -0.320767E+02  0.157E-02    3.66       0.0  T
   2    -32.0766725 -0.692832E-07  0.912E-03    3.66       2.2  T
   3    -32.0766724  0.170095E-07  0.188E-03    3.66      10.4  T
   4    -32.0766725 -0.220658E-07  0.776E-04    3.66      25.3  T
   5    -32.0766725 -0.720431E-08  0.230E-04    3.66      85.3  T
   6    -32.0766725 -0.965109E-09  0.895E-05    3.66     219.2  T
   7    -32.0766725 -0.114753E-10  0.375E-05    3.66     523.5  T
   8    -32.0766725 -0.915179E-11  0.128E-05    3.66    1526.7  T
   9    -32.0766725 -0.242295E-11  0.337E-06    3.66    5824.3  T
  10    -32.0766725 -0.568434E-13  0.135E-06    3.66   14548.7  T
     SCC iter.                  ...        0 min,  0.081 sec
     gradient                   ...        0 min,  0.002 sec
 * total energy  :   -31.5560139 Eh     change       -0.7588276E-05 Eh
   gradient norm :     0.0005479 Eh/α   predicted    -0.3789195E-05 ( -50.07%)
   displ. norm   :     0.0412789 α      lambda       -0.4134612E-05
   maximum displ.:     0.0324706 α      in ANC's #3, #10, #6, ...

........................................................................
.............................. CYCLE   26 ..............................
........................................................................

 iter      E             dE          RMSdq      gap      omega  full diag
   1    -32.0766845 -0.320767E+02  0.915E-03    3.66       0.0  T
   2    -32.0766845 -0.261470E-07  0.515E-03    3.66       3.8  T
   3    -32.0766845  0.254224E-08  0.101E-03    3.67      19.4  T
   4    -32.0766845 -0.267343E-08  0.492E-04    3.67      39.9  T
   5    -32.0766845 -0.370598E-08  0.102E-04    3.67     193.1  T
   6    -32.0766845 -0.117396E-09  0.500E-05    3.67     391.9  T
   7    -32.0766845 -0.141469E-10  0.173E-05    3.67    1131.8  T
   8    -32.0766845 -0.195399E-11  0.796E-06    3.67    2463.7  T
   9    -32.0766845 -0.888178E-12  0.193E-06    3.67   10168.1  T
     SCC iter.                  ...        0 min,  0.073 sec
     gradient                   ...        0 min,  0.006 sec
 * total energy  :   -31.5560185 Eh     change       -0.4615063E-05 Eh
   gradient norm :     0.0003714 Eh/α   predicted    -0.2074508E-05 ( -55.05%)
   displ. norm   :     0.0367688 α      lambda       -0.3083891E-05
   maximum displ.:     0.0281585 α      in ANC's #3, #6, #9, ...

........................................................................
.............................. CYCLE   27 ..............................
........................................................................

 iter      E             dE          RMSdq      gap      omega  full diag
   1    -32.0767040 -0.320767E+02  0.921E-03    3.66       0.0  T
   2    -32.0767041 -0.226984E-07  0.513E-03    3.66       3.8  T
   3    -32.0767041 -0.490772E-09  0.904E-04    3.66      21.7  T
   4    -32.0767041  0.486835E-09  0.327E-04    3.66      59.9  T
   5    -32.0767041 -0.254563E-08  0.981E-05    3.66     199.9  T
   6    -32.0767041 -0.474785E-10  0.328E-05    3.66     597.2  T
   7    -32.0767041 -0.571276E-11  0.138E-05    3.66    1422.1  T
   8    -32.0767041 -0.150635E-11  0.521E-06    3.66    3761.3  T
   9    -32.0767041 -0.220268E-12  0.190E-06    3.66   10332.2  T
     SCC iter.                  ...        0 min,  0.077 sec
     gradient                   ...        0 min,  0.002 sec
 * total energy  :   -31.5560221 Eh     change       -0.3573624E-05 Eh
   gradient norm :     0.0005066 Eh/α   predicted    -0.1543085E-05 ( -56.82%)
   displ. norm   :     0.0376315 α      lambda       -0.2493744E-05
   maximum displ.:     0.0282966 α      in ANC's #3, #9, #4, ...

........................................................................
.............................. CYCLE   28 ..............................
........................................................................

 iter      E             dE          RMSdq      gap      omega  full diag
   1    -32.0766913 -0.320767E+02  0.894E-03    3.66       0.0  T
   2    -32.0766913 -0.175537E-07  0.504E-03    3.66       3.9  T
   3    -32.0766913 -0.276152E-09  0.824E-04    3.66      23.8  T
   4    -32.0766913 -0.563766E-09  0.274E-04    3.66      71.7  T
   5    -32.0766913 -0.107966E-08  0.106E-04    3.66     185.1  T
   6    -32.0766913 -0.113680E-09  0.552E-05    3.66     355.4  T
   7    -32.0766913 -0.104734E-10  0.151E-05    3.66    1299.2  T
   8    -32.0766913 -0.166267E-11  0.393E-06    3.66    4986.7  T
   9    -32.0766913 -0.149214E-12  0.141E-06    3.66   13956.8  T
     SCC iter.                  ...        0 min,  0.084 sec
     gradient                   ...        0 min,  0.002 sec
 * total energy  :   -31.5560249 Eh     change       -0.2813727E-05 Eh
   gradient norm :     0.0003805 Eh/α   predicted    -0.1248407E-05 ( -55.63%)
   displ. norm   :     0.0322054 α      lambda       -0.1624476E-05
   maximum displ.:     0.0249103 α      in ANC's #3, #9, #4, ...

........................................................................
.............................. CYCLE   29 ..............................
........................................................................

 iter      E             dE          RMSdq      gap      omega  full diag
   1    -32.0767275 -0.320767E+02  0.729E-03    3.66       0.0  T
   2    -32.0767275 -0.155207E-07  0.423E-03    3.66       4.6  T
   3    -32.0767275  0.335504E-09  0.683E-04    3.66      28.7  T
   4    -32.0767275 -0.135984E-08  0.319E-04    3.66      61.4  T
   5    -32.0767275 -0.623487E-09  0.875E-05    3.66     224.0  T
   6    -32.0767275 -0.537170E-10  0.529E-05    3.66     371.0  T
   7    -32.0767275 -0.221902E-10  0.125E-05    3.66    1574.1  T
   8    -32.0767275 -0.262901E-12  0.439E-06    3.66    4463.2  T
   9    -32.0767275 -0.994760E-13  0.163E-06    3.66   11995.6  T
     SCC iter.                  ...        0 min,  0.079 sec
     gradient                   ...        0 min,  0.002 sec
 * total energy  :   -31.5560267 Eh     change       -0.1790520E-05 Eh
   gradient norm :     0.0002160 Eh/α   predicted    -0.8134178E-06 ( -54.57%)
   displ. norm   :     0.0243994 α      lambda       -0.9844363E-06
   maximum displ.:     0.0194325 α      in ANC's #3, #4, #9, ...

........................................................................
.............................. CYCLE   30 ..............................
........................................................................

 iter      E             dE          RMSdq      gap      omega  full diag
   1    -32.0767217 -0.320767E+02  0.605E-03    3.66       0.0  T
   2    -32.0767217 -0.354716E-08  0.361E-03    3.66       5.4  T
   3    -32.0767217  0.351811E-09  0.320E-04    3.66      61.2  T
   4    -32.0767217 -0.935941E-09  0.152E-04    3.66     128.8  T
   5    -32.0767217 -0.168647E-09  0.633E-05    3.66     309.6  T
   6    -32.0767217 -0.292673E-10  0.359E-05    3.66     545.6  T
   7    -32.0767217 -0.724754E-11  0.888E-06    3.66    2209.7  T
   8    -32.0767217 -0.206057E-12  0.213E-06    3.66    9209.7  T
     SCC iter.                  ...        0 min,  0.083 sec
     gradient                   ...        0 min,  0.002 sec
 * total energy  :   -31.5560279 Eh     change       -0.1136584E-05 Eh
   gradient norm :     0.0001387 Eh/α   predicted    -0.4936887E-06 ( -56.56%)
   displ. norm   :     0.0209545 α      lambda       -0.7238442E-06
   maximum displ.:     0.0161239 α      in ANC's #3, #4, #5, ...

........................................................................
.............................. CYCLE   31 ..............................
........................................................................

 iter      E             dE          RMSdq      gap      omega  full diag
   1    -32.0767334 -0.320767E+02  0.469E-03    3.66       0.0  T
   2    -32.0767334 -0.219808E-08  0.270E-03    3.66       7.3  T
   3    -32.0767334  0.405393E-09  0.285E-04    3.66      68.8  T
   4    -32.0767334 -0.402608E-09  0.174E-04    3.66     112.7  T
   5    -32.0767334 -0.494190E-09  0.567E-05    3.66     345.8  T
   6    -32.0767334 -0.248690E-12  0.268E-05    3.66     732.4  T
   7    -32.0767334 -0.435563E-11  0.596E-06    3.66    3289.8  T
   8    -32.0767334 -0.241585E-12  0.205E-06    3.66    9580.5  T
     SCC iter.                  ...        0 min,  0.079 sec
     gradient                   ...        0 min,  0.002 sec
 * total energy  :   -31.5560288 Eh     change       -0.8988567E-06 Eh
   gradient norm :     0.0001622 Eh/α   predicted    -0.3626580E-06 ( -59.65%)
   displ. norm   :     0.0210777 α      lambda       -0.6504698E-06
   maximum displ.:     0.0157636 α      in ANC's #3, #4, #5, ...

........................................................................
.............................. CYCLE   32 ..............................
........................................................................

 iter      E             dE          RMSdq      gap      omega  full diag
   1    -32.0767591 -0.320768E+02  0.494E-03    3.66       0.0  T
   2    -32.0767591 -0.228954E-08  0.288E-03    3.66       6.8  T
   3    -32.0767591 -0.977067E-10  0.260E-04    3.66      75.3  T
   4    -32.0767591 -0.420002E-10  0.130E-04    3.66     151.4  T
   5    -32.0767591 -0.387999E-09  0.366E-05    3.66     536.3  T
   6    -32.0767591 -0.166267E-11  0.162E-05    3.66    1208.1  T
   7    -32.0767591 -0.176925E-11  0.301E-06    3.66    6516.1  T
   8    -32.0767591 -0.639488E-13  0.179E-06    3.66   10939.5  T
     SCC iter.                  ...        0 min,  0.075 sec
     gradient                   ...        0 min,  0.002 sec
 * total energy  :   -31.5560296 Eh     change       -0.8099984E-06 Eh
   gradient norm :     0.0001622 Eh/α   predicted    -0.3267254E-06 ( -59.66%)
   displ. norm   :     0.0191091 α      lambda       -0.4946367E-06
   maximum displ.:     0.0142652 α      in ANC's #3, #2, #4, ...

........................................................................
.............................. CYCLE   33 ..............................
........................................................................

 iter      E             dE          RMSdq      gap      omega  full diag
   1    -32.0767542 -0.320768E+02  0.482E-03    3.66       0.0  T
   2    -32.0767542 -0.127587E-08  0.281E-03    3.66       7.0  T
   3    -32.0767542  0.229242E-09  0.202E-04    3.66      96.9  T
   4    -32.0767542 -0.467381E-09  0.110E-04    3.66     177.6  T
   5    -32.0767542 -0.207741E-09  0.351E-05    3.66     558.1  T
   6    -32.0767542  0.923706E-13  0.109E-05    3.66    1805.4  T
   7    -32.0767542 -0.142109E-11  0.406E-06    3.66    4826.4  T
   8    -32.0767542 -0.149214E-12  0.153E-06    3.66   12856.9  T
     SCC iter.                  ...        0 min,  0.073 sec
     gradient                   ...        0 min,  0.002 sec
 * total energy  :   -31.5560302 Eh     change       -0.5926829E-06 Eh
   gradient norm :     0.0000997 Eh/α   predicted    -0.2479068E-06 ( -58.17%)
   displ. norm   :     0.0142150 α      lambda       -0.3045959E-06
   maximum displ.:     0.0110294 α      in ANC's #3, #2, #4, ...

........................................................................
.............................. CYCLE   34 ..............................
........................................................................

 iter      E             dE          RMSdq      gap      omega  full diag
   1    -32.0767696 -0.320768E+02  0.356E-03    3.66       0.0  T
   2    -32.0767696 -0.122314E-08  0.209E-03    3.66       9.4  T
   3    -32.0767696  0.523343E-09  0.246E-04    3.66      79.6  T
   4    -32.0767696 -0.716852E-09  0.983E-05    3.66     199.4  T
   5    -32.0767696 -0.148624E-09  0.281E-05    3.66     698.1  T
   6    -32.0767696 -0.931522E-11  0.158E-05    3.66    1242.4  T
   7    -32.0767696 -0.930811E-12  0.430E-06    3.66    4557.0  T
   8    -32.0767696 -0.227374E-12  0.149E-06    3.66   13134.7  T
     SCC iter.                  ...        0 min,  0.073 sec
     gradient                   ...        0 min,  0.002 sec
 * total energy  :   -31.5560305 Eh     change       -0.3779172E-06 Eh
   gradient norm :     0.0000587 Eh/α   predicted    -0.1545498E-06 ( -59.10%)
   displ. norm   :     0.0113678 α      lambda       -0.2138526E-06
   maximum displ.:     0.0086757 α      in ANC's #3, #2, #1, ...

........................................................................
.............................. CYCLE   35 ..............................
........................................................................

 iter      E             dE          RMSdq      gap      omega  full diag
   1    -32.0767633 -0.320768E+02  0.317E-03    3.66       0.0  T
   2    -32.0767633 -0.634202E-09  0.185E-03    3.66      10.6  T
   3    -32.0767633  0.878799E-10  0.140E-04    3.66     140.4  T
   4    -32.0767633 -0.213348E-09  0.604E-05    3.66     324.5  T
   5    -32.0767633 -0.695266E-10  0.183E-05    3.66    1068.8  T
   6    -32.0767633 -0.966338E-12  0.846E-06    3.66    2319.2  T
   7    -32.0767633 -0.227374E-12  0.178E-06    3.66   11033.4  T
     SCC iter.                  ...        0 min,  0.072 sec
     gradient                   ...        0 min,  0.002 sec
 * total energy  :   -31.5560308 Eh     change       -0.2817022E-06 Eh
   gradient norm :     0.0000559 Eh/α   predicted    -0.1080488E-06 ( -61.64%)
   displ. norm   :     0.0129877 α      lambda       -0.2168794E-06
   maximum displ.:     0.0093982 α      in ANC's #3, #2, #1, ...

........................................................................
.............................. CYCLE   36 ..............................
........................................................................

 iter      E             dE          RMSdq      gap      omega  full diag
   1    -32.0767536 -0.320768E+02  0.388E-03    3.66       0.0  T
   2    -32.0767536 -0.924608E-09  0.227E-03    3.66       8.6  T
   3    -32.0767536  0.424265E-10  0.159E-04    3.66     123.7  T
   4    -32.0767536 -0.249187E-09  0.699E-05    3.66     280.5  T
   5    -32.0767537 -0.680203E-10  0.264E-05    3.66     742.3  T
   6    -32.0767537 -0.368061E-11  0.104E-05    3.66    1893.3  T
   7    -32.0767537 -0.348166E-12  0.263E-06    3.66    7471.1  T
   8    -32.0767537 -0.994760E-13  0.120E-06    3.66   16297.9  T
     SCC iter.                  ...        0 min,  0.073 sec
     gradient                   ...        0 min,  0.002 sec
 * total energy  :   -31.5560311 Eh     change       -0.2874589E-06 Eh
   gradient norm :     0.0000660 Eh/α   predicted    -0.1111734E-06 ( -61.33%)
   displ. norm   :     0.0171479 α      lambda       -0.2384469E-06
   maximum displ.:     0.0119225 α      in ANC's #3, #2, #1, ...

........................................................................
.............................. CYCLE   37 ..............................
........................................................................

 iter      E             dE          RMSdq      gap      omega  full diag
   1    -32.0767431 -0.320767E+02  0.551E-03    3.66       0.0  T
   2    -32.0767431 -0.186335E-08  0.322E-03    3.66       6.1  T
   3    -32.0767431  0.707345E-10  0.227E-04    3.66      86.4  T
   4    -32.0767431 -0.464212E-09  0.101E-04    3.66     193.9  T
   5    -32.0767431 -0.127422E-09  0.355E-05    3.66     552.3  T
   6    -32.0767431 -0.505196E-11  0.160E-05    3.66    1222.9  T
   7    -32.0767431 -0.518696E-12  0.356E-06    3.66    5509.3  T
   8    -32.0767431 -0.142109E-12  0.132E-06    3.66   14833.8  T
     SCC iter.                  ...        0 min,  0.073 sec
     gradient                   ...        0 min,  0.002 sec
 * total energy  :   -31.5560314 Eh     change       -0.2890732E-06 Eh
   gradient norm :     0.0000671 Eh/α   predicted    -0.1219407E-06 ( -57.82%)
   displ. norm   :     0.0204585 α      lambda       -0.2037596E-06
   maximum displ.:     0.0141812 α      in ANC's #3, #2, #1, ...

........................................................................
.............................. CYCLE   38 ..............................
........................................................................

 iter      E             dE          RMSdq      gap      omega  full diag
   1    -32.0767334 -0.320767E+02  0.676E-03    3.66       0.0  T
   2    -32.0767334 -0.280528E-08  0.395E-03    3.66       5.0  T
   3    -32.0767334 -0.232632E-10  0.266E-04    3.66      73.7  T
   4    -32.0767334 -0.567404E-09  0.128E-04    3.66     153.4  T
   5    -32.0767334 -0.191989E-09  0.473E-05    3.66     415.0  T
   6    -32.0767334 -0.834888E-11  0.210E-05    3.66     934.8  T
   7    -32.0767334 -0.959233E-12  0.497E-06    3.66    3947.5  T
   8    -32.0767334 -0.255795E-12  0.168E-06    3.66   11707.0  T
     SCC iter.                  ...        0 min,  0.073 sec
     gradient                   ...        0 min,  0.002 sec
 * total energy  :   -31.5560316 Eh     change       -0.2268864E-06 Eh
   gradient norm :     0.0000645 Eh/α   predicted    -0.1058896E-06 ( -53.33%)
   displ. norm   :     0.0180810 α      lambda       -0.1289084E-06
   maximum displ.:     0.0124504 α      in ANC's #3, #1, #2, ...

........................................................................
.............................. CYCLE   39 ..............................
........................................................................

 iter      E             dE          RMSdq      gap      omega  full diag
   1    -32.0767307 -0.320767E+02  0.610E-03    3.66       0.0  T
   2    -32.0767307 -0.207468E-08  0.357E-03    3.66       5.5  T
   3    -32.0767307  0.919655E-10  0.243E-04    3.66      80.7  T
   4    -32.0767307 -0.495653E-09  0.124E-04    3.66     157.9  T
   5    -32.0767307 -0.189829E-09  0.413E-05    3.66     474.9  T
   6    -32.0767307 -0.476774E-11  0.187E-05    3.66    1046.0  T
   7    -32.0767307 -0.866862E-12  0.481E-06    3.66    4076.3  T
   8    -32.0767307 -0.362377E-12  0.151E-06    3.66   12985.9  T
     SCC iter.                  ...        0 min,  0.081 sec
     gradient                   ...        0 min,  0.002 sec
 * total energy  :   -31.5560318 Eh     change       -0.1518854E-06 Eh
   gradient norm :     0.0000660 Eh/α   predicted    -0.6581482E-07 ( -56.67%)
   displ. norm   :     0.0163125 α      lambda       -0.1216692E-06
   maximum displ.:     0.0105511 α      in ANC's #3, #1, #4, ...

........................................................................
.............................. CYCLE   40 ..............................
........................................................................

 iter      E             dE          RMSdq      gap      omega  full diag
   1    -32.0767392 -0.320767E+02  0.549E-03    3.66       0.0  T
   2    -32.0767392 -0.176808E-08  0.320E-03    3.66       6.1  T
   3    -32.0767392  0.571916E-10  0.223E-04    3.66      87.9  T
   4    -32.0767392 -0.329635E-09  0.126E-04    3.66     155.6  T
   5    -32.0767392 -0.222052E-09  0.409E-05    3.66     480.0  T
   6    -32.0767392 -0.328981E-11  0.191E-05    3.66    1026.2  T
   7    -32.0767392 -0.114397E-11  0.470E-06    3.66    4171.2  T
   8    -32.0767392 -0.362377E-12  0.130E-06    3.66   15102.7  T
     SCC iter.                  ...        0 min,  0.079 sec
     gradient                   ...        0 min,  0.002 sec
 * total energy  :   -31.5560319 Eh     change       -0.1634006E-06 Eh
   gradient norm :     0.0000615 Eh/α   predicted    -0.6224265E-07 ( -61.91%)
   displ. norm   :     0.0136756 α      lambda       -0.1445677E-06
   maximum displ.:     0.0075559 α      in ANC's #1, #3, #4, ...

........................................................................
.............................. CYCLE   41 ..............................
........................................................................

 iter      E             dE          RMSdq      gap      omega  full diag
   1    -32.0767590 -0.320768E+02  0.475E-03    3.66       0.0  T
   2    -32.0767590 -0.125070E-08  0.278E-03    3.66       7.1  T
   3    -32.0767590  0.840927E-10  0.195E-04    3.66     100.4  T
   4    -32.0767590 -0.256328E-09  0.111E-04    3.66     177.1  T
   5    -32.0767590 -0.158806E-09  0.390E-05    3.66     502.8  T
   6    -32.0767590 -0.641620E-11  0.165E-05    3.66    1191.1  T
   7    -32.0767590 -0.667910E-12  0.445E-06    3.66    4407.3  T
   8    -32.0767590 -0.227374E-12  0.115E-06    3.66   17041.6  T
     SCC iter.                  ...        0 min,  0.075 sec
     gradient                   ...        0 min,  0.002 sec
 * total energy  :   -31.5560321 Eh     change       -0.2002430E-06 Eh
   gradient norm :     0.0000470 Eh/α   predicted    -0.7303253E-07 ( -63.53%)
   displ. norm   :     0.0173698 α      lambda       -0.1798750E-06
   maximum displ.:     0.0104326 α      in ANC's #1, #4, #3, ...

........................................................................
.............................. CYCLE   42 ..............................
........................................................................

 iter      E             dE          RMSdq      gap      omega  full diag
   1    -32.0767700 -0.320768E+02  0.627E-03    3.66       0.0  T
   2    -32.0767700 -0.182106E-08  0.366E-03    3.66       5.4  T
   3    -32.0767700  0.165798E-09  0.239E-04    3.66      82.2  T
   4    -32.0767700 -0.403183E-09  0.145E-04    3.66     135.3  T
   5    -32.0767700 -0.339199E-09  0.445E-05    3.66     440.7  T
   6    -32.0767700 -0.183320E-11  0.184E-05    3.66    1066.4  T
   7    -32.0767700 -0.137845E-11  0.521E-06    3.66    3764.9  T
   8    -32.0767700 -0.426326E-12  0.145E-06    3.66   13501.9  T
     SCC iter.                  ...        0 min,  0.077 sec
     gradient                   ...        0 min,  0.002 sec
 * total energy  :   -31.5560324 Eh     change       -0.2541320E-06 Eh
   gradient norm :     0.0000515 Eh/α   predicted    -0.9478535E-07 ( -62.70%)
   displ. norm   :     0.0185203 α      lambda       -0.1764341E-06
   maximum displ.:     0.0120093 α      in ANC's #1, #4, #3, ...
 * RMSD in coord.:     0.1087406 α      energy gain  -0.1195925E-03 Eh

generating ANC from model Hessian ...
Using Lindh-Hessian (1995)
 Shifting diagonal of input Hessian by   9.133086128097892E-003
 Lowest  eigenvalues of input Hessian
    0.000000    0.000000    0.000000    0.000000    0.000000    0.000000
    0.010000    0.010067    0.010718    0.010965    0.011405    0.012562
    0.015064    0.016946    0.018396    0.018590    0.022052    0.024148
 Highest eigenvalues
    1.363617    1.554190    1.573637    1.882190    1.988304    2.004407
 

........................................................................
.............................. CYCLE   43 ..............................
........................................................................

 iter      E             dE          RMSdq      gap      omega  full diag
   1    -32.0767764 -0.320768E+02  0.693E-03    3.66       0.0  T
   2    -32.0767764 -0.191599E-08  0.405E-03    3.66       4.8  T
   3    -32.0767764  0.180499E-09  0.237E-04    3.66      82.6  T
   4    -32.0767764 -0.517723E-09  0.145E-04    3.66     135.3  T
   5    -32.0767764 -0.296687E-09  0.472E-05    3.66     415.6  T
   6    -32.0767764 -0.116529E-11  0.191E-05    3.66    1024.8  T
   7    -32.0767764 -0.206768E-11  0.524E-06    3.66    3744.7  T
   8    -32.0767764 -0.333955E-12  0.159E-06    3.66   12311.2  T
     SCC iter.                  ...        0 min,  0.074 sec
     gradient                   ...        0 min,  0.002 sec
 * total energy  :   -31.5560326 Eh     change       -0.2233232E-06 Eh
   gradient norm :     0.0000376 Eh/α   predicted     0.0000000E+00 (-100.00%)
   displ. norm   :     0.0000564 α      lambda        0.0000000E+00
   maximum displ.:     0.0000302 α      in ANC's #1, #70, #60, ...

........................................................................
.............................. CYCLE   44 ..............................
........................................................................

 iter      E             dE          RMSdq      gap      omega  full diag
   1    -32.0767710 -0.320768E+02  0.649E-05    3.66       0.0  T
   2    -32.0767710 -0.711964E-11  0.384E-05    3.66     511.3  T
   3    -32.0767710  0.112266E-11  0.185E-05    3.66    1061.8  T
   4    -32.0767710 -0.293454E-11  0.571E-06    3.66    3435.3  T
   5    -32.0767710 -0.127898E-12  0.294E-06    3.66    6659.9  T
     SCC iter.                  ...        0 min,  0.073 sec
     gradient                   ...        0 min,  0.002 sec
 * total energy  :   -31.5560326 Eh     change       -0.1628710E-08 Eh
   gradient norm :     0.0000272 Eh/α   predicted    -0.1037546E-08 ( -36.30%)
   displ. norm   :     0.0000564 α      lambda        0.0000000E+00
   maximum displ.:     0.0000302 α      in ANC's #1, #70, #60, ...

   *** GEOMETRY OPTIMIZATION CONVERGED AFTER 44 ITERATIONS ***

------------------------------------------------------------------------
 total energy gain   :        -0.0083831 Eh       -5.2605 kcal/mol
 total RMSD          :         0.9417371 a0        0.4983 Å
 total power (kW/mol):        -0.5002253 (step)   -6.1642 (real)
------------------------------------------------------------------------

 ANCopt (total)                0 d,  0 h,  0 min,  3.571 sec
 optimizer setup                ...        0 min,  0.000 sec (  0.002%)
 model hessian                  ...        0 min,  0.017 sec (  0.467%)
 ANC generation                 ...        0 min,  0.001 sec (  0.029%)
 coordinate transformation      ...        0 min,  0.000 sec (  0.011%)
 single point calculation       ...        0 min,  3.545 sec ( 99.275%)
 optimization log               ...        0 min,  0.003 sec (  0.080%)
 hessian update                 ...        0 min,  0.001 sec (  0.035%)
 rational function              ...        0 min,  0.003 sec (  0.071%)

================
 final structure:
================
26
 xtb: 6.7.0 (08769fc)
P            1.63745851058105       -0.49227774781475       -3.23744714235175
C            1.84459779905099        0.64797498380354       -1.77211702038871
H            1.08295660554168        0.37402404202012       -1.03699221388438
H            2.83043446612536        0.49380204849404       -1.32344245498269
C            1.66903171325921        2.10246517330381       -2.18439023249927
H            0.69024477302159        2.25457174578558       -2.63507753026073
H            2.42703142184545        2.38523370470946       -2.91337703246913
H            1.75785427517342        2.76026165132309       -1.32124938009946
C            3.21423333139611       -0.07862548126829       -4.09266421824917
C            4.47896022438304       -0.33035571626267       -3.57382934285752
C            3.10664374029476        0.54761396284818       -5.32983758795082
C            5.60914049581186        0.03843027428914       -4.28040801671812
C            4.23659427013394        0.92136162548049       -6.03461632199817
C            5.49181391427438        0.66576515508903       -5.50981601080158
H            4.59086209451647       -0.81593670200212       -2.61520634464677
H            2.12229109948318        0.74014530182686       -5.73426335596797
H            6.58820656906085       -0.16292425012846       -3.86888922844958
H            4.13921541240140        1.41022186386270       -6.99330714227901
H            6.37796959251760        0.95350764395362       -6.05662462953107
C            2.12181499636829       -2.09483542669265       -2.40759370957234
H            2.53649812681275       -2.74539702626598       -3.18263048535203
H            2.89195968606607       -1.92178844254367       -1.65165225043809
C            0.90706326648061       -2.75922320092586       -1.77117719989810
H            0.13773810939385       -2.93900931048234       -2.51920737283952
H            0.48301143953926       -2.12601593959410       -0.99425596831935
H            1.18244506646584       -3.71253893280841       -1.32287280719512
 
 Bond Distances (Angstroems)
 ---------------------------
P1-C2=1.8682         P1-C9=1.8408         P1-C20=1.8685        C2-P1=1.8682         C2-H3=1.0934         C2-H4=1.0941         
C2-C5=1.5220         H3-C2=1.0934         H4-C2=1.0941         C5-C2=1.5220         C5-H6=1.0882         C5-H7=1.0890         
C5-H8=1.0889         H6-C5=1.0882         H7-C5=1.0890         H8-C5=1.0889         C9-P1=1.8408         C9-C10=1.3900        
C9-C11=1.3908        C10-C9=1.3900        C10-C12=1.3830       C10-H15=1.0804       C11-C9=1.3908        C11-C13=1.3832       
C11-H16=1.0815       C12-C10=1.3830       C12-C14=1.3852       C12-H17=1.0810       C13-C11=1.3832       C13-C14=1.3843       
C13-H18=1.0805       C14-C12=1.3852       C14-C13=1.3843       C14-H19=1.0803       H15-C10=1.0804       H16-C11=1.0815       
H17-C12=1.0810       H18-C13=1.0805       H19-C14=1.0803       C20-P1=1.8685        C20-H21=1.0936       C20-H22=1.0929       
C20-C23=1.5238       H21-C20=1.0936       H22-C20=1.0929       C23-C20=1.5238       C23-H24=1.0880       C23-H25=1.0883       
C23-H26=1.0889       H24-C23=1.0880       H25-C23=1.0883       H26-C23=1.0889       
 C  H  Rav=1.0873 sigma=0.0050  Rmin=1.0803  Rmax=1.0941    15
 C  C  Rav=1.4203 sigma=0.0593  Rmin=1.3830  Rmax=1.5238     8
 P  C  Rav=1.8592 sigma=0.0130  Rmin=1.8408  Rmax=1.8685     3
 
 selected bond angles (degree)
 --------------------
C9-P1-C2= 97.60                C20-P1-C2= 98.42               C20-P1-C9=100.20               H3-C2-P1=107.29                
H4-C2-P1=109.61                H4-C2-H3=108.46                C5-C2-P1=110.98                C5-C2-H3=109.95                
C5-C2-H4=110.47                H6-C5-C2=110.46                H7-C5-C2=110.44                H7-C5-H6=108.21                
H8-C5-C2=110.68                H8-C5-H6=108.50                H8-C5-H7=108.48                C10-C9-P1=124.42               
C11-C9-P1=116.63               C11-C9-C10=118.94              C12-C10-C9=120.30              H15-C10-C9=120.45              
H15-C10-C12=119.24             
 
 selected dihedral angles (degree)
 ---------------------------------
H3-C2-P1-C9=191.93            H3-C2-P1-C20=293.49           H4-C2-P1-C9=309.51            H4-C2-P1-C20= 51.06           
C5-C2-P1-C9= 71.80            C5-C2-P1-C20=173.35           H6-C5-C2-P1= 57.94            H6-C5-C2-H3=299.40            
H6-C5-C2-H4=179.72            H7-C5-C2-P1=298.27            H7-C5-C2-H3=179.73            H7-C5-C2-H4= 60.06            
H8-C5-C2-P1=178.12            H8-C5-C2-H3= 59.58            H8-C5-C2-H4=299.91            C10-C9-P1-C2= 64.04           
C10-C9-P1-C20=324.02          C11-C9-P1-C2=245.16           C11-C9-P1-C20=145.14          C12-C10-C9-P1=181.16          
C12-C10-C9-C11=  0.00         H15-C10-C9-P1=  1.18          H15-C10-C9-C11=180.03         
           -------------------------------------------------
          |                Final Singlepoint                |
           -------------------------------------------------

          ...................................................
          :                      SETUP                      :
          :.................................................:
          :  # basis functions                  65          :
[...]
         :: total charge               0.000000000000 e     ::
         :::::::::::::::::::::::::::::::::::::::::::::::::::::

           ------------------------------------------------- 
          |                Numerical Hessian                |
           ------------------------------------------------- 
step length          :   0.00500
SCC accuracy         :   0.30000
Hessian scale factor :   1.00000
frozen atoms in %    :   0.00000    0
RMS gradient         :   0.00003
estimated CPU  time      1.12 min
estimated wall time      0.14 min

writing file <hessian>.

 projected vibrational frequencies (cm⁻¹)
eigval :       -0.00    -0.00    -0.00    -0.00    -0.00     0.00
eigval :        6.12    50.65    70.57    98.57   132.41   158.74
eigval :      199.06   214.71   231.09   266.49   293.25   333.08
eigval :      361.83   429.33   451.41   585.98   656.68   661.93
eigval :      687.29   698.87   736.20   761.06   778.38   873.68
eigval :      898.14   926.26   932.67   969.09   976.88   993.98
eigval :     1012.44  1018.54  1071.30  1077.03  1083.35  1117.32
eigval :     1120.91  1181.60  1198.01  1224.17  1229.20  1251.09
eigval :     1252.52  1279.95  1315.41  1409.69  1410.61  1423.30
eigval :     1438.75  1447.74  1457.29  1497.22  1498.84  1501.06
eigval :     1502.47  1579.68  1589.41  2926.95  2937.14  2948.33
eigval :     2951.14  3013.69  3014.41  3019.71  3024.84  3030.02
eigval :     3033.46  3062.68  3065.75  3073.96  3079.14  3087.96
           -------------------------------------------------
          |                Property Printout                |
           -------------------------------------------------

    * Orbital Energies and Occupations

         #    Occupation            Energy/Eh            Energy/eV
      -------------------------------------------------------------
         1        2.0000           -0.6579916             -17.9049
       ...           ...                  ...                  ...
        18        2.0000           -0.4773642             -12.9897
        19        2.0000           -0.4745794             -12.9140
        20        2.0000           -0.4631385             -12.6026
        21        2.0000           -0.4618395             -12.5673
        22        2.0000           -0.4526607             -12.3175
        23        2.0000           -0.4445295             -12.0963
        24        2.0000           -0.4380090             -11.9188
        25        2.0000           -0.4231198             -11.5137
        26        2.0000           -0.4183568             -11.3841
        27        2.0000           -0.4044955             -11.0069
        28        2.0000           -0.4041418             -10.9973
        29        2.0000           -0.3968398             -10.7986
        30        2.0000           -0.3673066              -9.9949 (HOMO)
        31                         -0.2328008              -6.3348 (LUMO)
        32                         -0.2228323              -6.0636
        33                         -0.1562279              -4.2512
        34                         -0.1510519              -4.1103
        35                         -0.0928379              -2.5262
        36                         -0.0016108              -0.0438
        37                          0.0587684               1.5992
        38                          0.0909303               2.4743
        39                          0.1078847               2.9357
        40                          0.1333955               3.6299
        41                          0.1364295               3.7124
       ...                                ...                  ...
        64                          0.7811334              21.2557
      -------------------------------------------------------------
                  HL-Gap            0.1345058 Eh            3.6601 eV
             Fermi-level           -0.3000537 Eh           -8.1649 eV

     #   Z          covCN         q      C6AA      α(0)
     1  15 P        3.056    -0.114   165.398    23.103
     2   6 C        3.748    -0.045    21.448     6.606
     3   1 H        0.925     0.040     2.452     2.449
     4   1 H        0.925     0.042     2.417     2.431
     5   6 C        3.820    -0.097    22.330     6.725
     6   1 H        0.925     0.042     2.426     2.436
     7   1 H        0.925     0.036     2.505     2.475
     8   1 H        0.925     0.032     2.552     2.498
     9   6 C        2.916     0.008    27.847     8.653
    10   6 C        2.960    -0.029    28.729     8.792
    11   6 C        3.018    -0.030    28.731     8.792
    12   6 C        2.919    -0.031    28.769     8.796
    13   6 C        2.918    -0.030    28.747     8.792
    14   6 C        2.920    -0.029    28.733     8.790
    15   1 H        0.926     0.031     2.565     2.505
    16   1 H        0.925     0.039     2.456     2.451
    17   1 H        0.926     0.028     2.611     2.527
    18   1 H        0.926     0.030     2.584     2.514
    19   1 H        0.926     0.029     2.598     2.520
    20   6 C        3.748    -0.047    21.491     6.612
    21   1 H        0.925     0.040     2.453     2.449
    22   1 H        0.925     0.041     2.431     2.438
    23   6 C        3.822    -0.098    22.350     6.728
    24   1 H        0.925     0.042     2.421     2.433
    25   1 H        0.925     0.036     2.498     2.471
    26   1 H        0.925     0.033     2.547     2.496

 Mol. C6AA /au·bohr⁶  :       7598.260005
 Mol. C8AA /au·bohr⁸  :     202560.738797
 Mol. α(0) /au        :        139.482705


Wiberg/Mayer (AO) data.
largest (>0.10) Wiberg bond orders for each atom

 ---------------------------------------------------------------------------
     #   Z sym  total        # sym  WBO       # sym  WBO       # sym  WBO
 ---------------------------------------------------------------------------
     1  15 P    3.343 --    20 C    1.026     2 C    1.021     9 C    1.007
     2   6 C    3.996 --     1 P    1.021     5 C    1.017     3 H    0.958
                             4 H    0.952
     3   1 H    0.998 --     2 C    0.958
     4   1 H    0.998 --     2 C    0.952
     5   6 C    3.997 --     2 C    1.017     6 H    0.985     8 H    0.984
                             7 H    0.984
     6   1 H    0.998 --     5 C    0.985
     7   1 H    0.999 --     5 C    0.984
     8   1 H    0.999 --     5 C    0.984
     9   6 C    3.983 --    11 C    1.407    10 C    1.400     1 P    1.007
                            14 C    0.108
    10   6 C    3.993 --    12 C    1.449     9 C    1.400    15 H    0.962
                            13 C    0.110
    11   6 C    3.991 --    13 C    1.444     9 C    1.407    16 H    0.964
                            12 C    0.109
    12   6 C    3.993 --    10 C    1.449    14 C    1.433    17 H    0.970
                            11 C    0.109
    13   6 C    3.992 --    11 C    1.444    14 C    1.440    18 H    0.970
                            10 C    0.110
    14   6 C    3.990 --    13 C    1.440    12 C    1.433    19 H    0.971
                             9 C    0.108
    15   1 H    0.999 --    10 C    0.962
    16   1 H    0.998 --    11 C    0.964
    17   1 H    0.999 --    12 C    0.970
    18   1 H    0.999 --    13 C    0.970
    19   1 H    0.998 --    14 C    0.971
    20   6 C    3.994 --     1 P    1.026    23 C    1.016    21 H    0.960
                            22 H    0.951
    21   1 H    0.998 --    20 C    0.960
    22   1 H    0.998 --    20 C    0.951
    23   6 C    3.995 --    20 C    1.016    24 H    0.985    25 H    0.985
                            26 H    0.984
    24   1 H    0.998 --    23 C    0.985
    25   1 H    0.999 --    23 C    0.985
    26   1 H    0.998 --    23 C    0.984
 ---------------------------------------------------------------------------

Topologies differ in total number of bonds
Writing topology from bond orders to xtbtopo.mol

molecular dipole:
                 x           y           z       tot (Debye)
 q only:        0.117       0.000       0.218
   full:        0.476      -0.010       0.421       1.615
molecular quadrupole (traceless):
                xx          xy          yy          xz          yz          zz
 q only:        1.796      -0.102       0.881      -0.132      -1.322      -2.677
  q+dip:        7.522      -0.878      -2.439      -2.129      -3.446      -5.083
   full:        5.696      -0.692       0.121      -2.982      -2.053      -5.817

           -------------------------------------------------
          |                Geometry Summary                 |
           -------------------------------------------------

      molecular mass/u    :      166.2002322
   center of mass at/Å    :        2.9084241      -0.1348020      -3.5419419
  moments of inertia/u·Å² :        0.3316668E+03   0.8176577E+03   0.9458595E+03
rotational constants/cm⁻¹ :        0.5082701E-01   0.2061698E-01   0.1782256E-01

 * 23 selected distances

     #   Z          #   Z                                           value/Å
     2   6 C        3   1 H                                       1.0934144
     2   6 C        4   1 H                                       1.0940532
     2   6 C        5   6 C                                       1.5219510
     5   6 C        6   1 H                                       1.0882461
     5   6 C        7   1 H                                       1.0890104
     5   6 C        8   1 H                                       1.0888517
     9   6 C       10   6 C                                       1.3899972
     9   6 C       11   6 C                                       1.3908090
    10   6 C       12   6 C                                       1.3829549
    11   6 C       13   6 C                                       1.3831807
    12   6 C       14   6 C                                       1.3851927
    13   6 C       14   6 C                                       1.3843127
    10   6 C       15   1 H                                       1.0804023
    11   6 C       16   1 H                                       1.0814707
    12   6 C       17   1 H                                       1.0809542
    13   6 C       18   1 H                                       1.0805347
    14   6 C       19   1 H                                       1.0803090 (min)
    20   6 C       21   1 H                                       1.0935606
    20   6 C       22   1 H                                       1.0929391
    20   6 C       23   6 C                                       1.5238305 (max)
    23   6 C       24   1 H                                       1.0879952
    23   6 C       25   1 H                                       1.0882914
    23   6 C       26   1 H                                       1.0888632

 * 2 distinct bonds (by element types)

   Z      Z             #   av. dist./Å        max./Å        min./Å
   1 H    6 C          15     1.0872597     1.0940532     1.0803090
   6 C    6 C           8     1.4202786     1.5238305     1.3829549

           -------------------------------------------------
          |               Frequency Printout                |
           -------------------------------------------------
 projected vibrational frequencies (cm⁻¹)
eigval :       -0.00    -0.00    -0.00    -0.00    -0.00     0.00
eigval :        6.12    50.65    70.57    98.57   132.41   158.74
eigval :      199.06   214.71   231.09   266.49   293.25   333.08
eigval :      361.83   429.33   451.41   585.98   656.68   661.93
eigval :      687.29   698.87   736.20   761.06   778.38   873.68
eigval :      898.14   926.26   932.67   969.09   976.88   993.98
eigval :     1012.44  1018.54  1071.30  1077.03  1083.35  1117.32
eigval :     1120.91  1181.60  1198.01  1224.17  1229.20  1251.09
eigval :     1252.52  1279.95  1315.41  1409.69  1410.61  1423.30
eigval :     1438.75  1447.74  1457.29  1497.22  1498.84  1501.06
eigval :     1502.47  1579.68  1589.41  2926.95  2937.14  2948.33
eigval :     2951.14  3013.69  3014.41  3019.71  3024.84  3030.02
eigval :     3033.46  3062.68  3065.75  3073.96  3079.14  3087.96
 reduced masses (amu)
   1: 13.67   2: 12.14   3: 13.09   4: 13.66   5: 13.12   6: 10.96   7:  9.80   8: 10.01
   9:  8.53  10:  8.86  11:  9.24  12:  7.41  13:  6.54  14:  4.16  15:  8.97  16:  9.73
  17: 12.99  18: 12.97  19:  8.82  20: 21.32  21: 10.05  22: 11.17  23: 11.14  24: 12.20
  25: 13.36  26: 16.30  27:  3.68  28:  4.35  29:  5.32  30:  3.32  31:  3.54  32:  4.19
  33:  3.03  34: 10.35  35:  3.21  36:  2.98  37:  3.73  38:  4.25  39:  9.56  40:  9.37
  41:  7.98  42:  7.11  43:  5.93  44:  1.34  45:  2.00  46:  3.57  47:  3.43  48:  4.29
  49:  4.26  50:  3.35  51: 11.95  52:  2.90  53:  2.94  54:  8.57  55:  2.11  56:  2.02
  57:  8.35  58:  1.52  59:  1.53  60:  1.55  61:  1.55  62: 11.46  63: 11.45  64:  1.84
  65:  1.86  66:  1.60  67:  1.64  68:  1.91  69:  1.87  70:  1.80  71:  1.88  72:  1.43
  73:  1.40  74:  1.78  75:  1.76  76:  1.81  77:  1.87  78:  1.92
 IR intensities (km·mol⁻¹)
   1:  0.19   2:  0.02   3:  0.11   4:  0.04   5:  0.13   6:  0.08   7:  0.26   8:  0.02
   9:  0.09  10:  0.01  11:  0.43  12:  0.18  13:  0.22  14:  0.16  15:  0.04  16:  0.53
  17:  0.04  18:  0.33  19:  0.02  20:  9.21  21:  2.67  22:  0.10  23:  4.08  24:  5.73
  25:  4.32  26: 46.71  27: 12.31  28: 24.33  29: 22.44  30:  0.03  31:  0.03  32:  0.03
  33:  0.00  34:  1.94  35:  1.25  36:  4.72  37:  2.09  38:  1.43  39:  2.91  40:  2.48
  41:  0.05  42:  3.70  43:  3.49  44:  0.02  45:  0.71  46:  2.28  47:  0.73  48: 10.37
  49:  5.20  50:  1.49  51:  0.75  52:  1.85  53:  2.85  54:  1.67  55:  0.25  56:  0.42
  57:  0.51  58:  2.36  59:  3.02  60:  1.99  61:  1.02  62:  0.40  63:  0.60  64: 12.28
  65: 30.81  66: 10.11  67: 29.29  68: 49.30  69: 49.52  70: 28.97  71: 36.87  72: 15.90
  73: 23.27  74: 12.20  75:  4.77  76: 15.17  77: 83.35  78: 58.47
 Raman intensities (Ä⁴*amu⁻¹)
   1:  0.00   2:  0.00   3:  0.00   4:  0.00   5:  0.00   6:  0.00   7:  0.00   8:  0.00
   9:  0.00  10:  0.00  11:  0.00  12:  0.00  13:  0.00  14:  0.00  15:  0.00  16:  0.00
  17:  0.00  18:  0.00  19:  0.00  20:  0.00  21:  0.00  22:  0.00  23:  0.00  24:  0.00
  25:  0.00  26:  0.00  27:  0.00  28:  0.00  29:  0.00  30:  0.00  31:  0.00  32:  0.00
  33:  0.00  34:  0.00  35:  0.00  36:  0.00  37:  0.00  38:  0.00  39:  0.00  40:  0.00
  41:  0.00  42:  0.00  43:  0.00  44:  0.00  45:  0.00  46:  0.00  47:  0.00  48:  0.00
  49:  0.00  50:  0.00  51:  0.00  52:  0.00  53:  0.00  54:  0.00  55:  0.00  56:  0.00
  57:  0.00  58:  0.00  59:  0.00  60:  0.00  61:  0.00  62:  0.00  63:  0.00  64:  0.00
  65:  0.00  66:  0.00  67:  0.00  68:  0.00  69:  0.00  70:  0.00  71:  0.00  72:  0.00
  73:  0.00  74:  0.00  75:  0.00  76:  0.00  77:  0.00  78:  0.00
 output can be read by thermo (or use thermo option).
 writing <g98.out> molden fake output.
 recommended (thermochemical) frequency scaling factor: 1.0
           -------------------------------------------------
          |             Thermodynamic Functions             |
           -------------------------------------------------

Refinement of some symmetry elements was terminated before convergence was reached.
Some symmetry elements may remain unidentified.
Molecule has no symmetry elements
It seems to be the C1 point group
c1  symmetry found (for desy threshold:  0.10E+00) used in thermo

          ...................................................
          :                      SETUP                      :
          :.................................................:
          :  # frequencies                          72      :
          :  # imaginary freq.                       0      :
          :  linear?                             false      :
          :  only rotor calc.                    false      :
          :  symmetry                               c1      :
          :  rotational number                       1      :
          :  scaling factor                  1.0000000      :
          :  rotor cutoff                   50.0000000 cm⁻¹ :
          :  imag. cutoff                  -20.0000000 cm⁻¹ :
          :.................................................:

    mode    ω/cm⁻¹     T·S(HO)/kcal·mol⁻¹    T·S(FR)/kcal·mol⁻¹   T·S(vib)
   ------------------------------------------------------------------------
       1      6.12    -2.67918 (  0.02%)    -1.67753 ( 99.98%)    -1.67776
       2     50.65    -1.42870 ( 51.29%)    -1.05259 ( 48.71%)    -1.24549
       3     70.57    -1.23358 ( 79.87%)    -0.95438 ( 20.13%)    -1.17738
       4     98.57    -1.03829 ( 93.79%)    -0.85541 (  6.21%)    -1.02693
       5    132.41    -0.86783 ( 98.01%)    -0.76799 (  1.99%)    -0.86584
       6    158.74    -0.76467 ( 99.03%)    -0.71427 (  0.97%)    -0.76418
       7    199.06    -0.63855 ( 99.60%)    -0.64722 (  0.40%)    -0.63859
       8    214.71    -0.59728 ( 99.71%)    -0.62482 (  0.29%)    -0.59736
       9    231.09    -0.55769 ( 99.78%)    -0.60304 (  0.22%)    -0.55779
      10    266.49    -0.48266 ( 99.88%)    -0.56081 (  0.12%)    -0.48275
      11    293.25    -0.43384 ( 99.92%)    -0.53247 (  0.08%)    -0.43393
   ------------------------------------------------------------------------

   temp. (K)  partition function   enthalpy   heat capacity  entropy
                                   cal/mol     cal/K/mol   cal/K/mol   J/K/mol
 298.15  VIB  0.119E+06             6286.360     39.203     40.108
         ROT  0.122E+07              888.752      2.981     30.837
         INT  0.146E+12             7175.112     42.184     70.944
         TR   0.207E+28             1481.254      4.968     41.214
         TOT                        8656.3664    47.1520   112.1581   469.2694

       T/K    H(0)-H(T)+PV         H(T)/Eh          T*S/Eh         G(T)/Eh
   ------------------------------------------------------------------------
    298.15    0.137948E-01    0.232254E+00    0.532899E-01    0.178964E+00
   ------------------------------------------------------------------------

         :::::::::::::::::::::::::::::::::::::::::::::::::::::
         ::                  THERMODYNAMIC                  ::
         :::::::::::::::::::::::::::::::::::::::::::::::::::::
         :: total free energy         -31.377068538980 Eh   ::
         ::.................................................::
         :: total energy              -31.556032615671 Eh   ::
         :: zero point energy           0.218459203571 Eh   ::
         :: G(RRHO) w/o ZPVE           -0.039495126879 Eh   ::
         :: G(RRHO) contrib.            0.178964076691 Eh   ::
         :::::::::::::::::::::::::::::::::::::::::::::::::::::

optimized geometry written to: xtbopt.xyz


           -------------------------------------------------
          | TOTAL ENERGY              -31.556032615671 Eh   |
          | TOTAL ENTHALPY            -31.323778614137 Eh   |
          | TOTAL FREE ENERGY         -31.377068538980 Eh   |
          | GRADIENT NORM               0.000027193108 Eh/α |
          | HOMO-LUMO GAP               3.660090325597 eV   |
           -------------------------------------------------

------------------------------------------------------------------------
 * finished run on 2025/07/14 at 11:35:54.370     
------------------------------------------------------------------------
 total:
 * wall-time:     0 d,  0 h,  0 min,  6.859 sec
 *  cpu-time:     0 d,  0 h,  1 min,  8.656 sec
 * ratio c/w:    10.009 speedup
 SCF:
 * wall-time:     0 d,  0 h,  0 min,  0.086 sec
 *  cpu-time:     0 d,  0 h,  0 min,  1.024 sec
 * ratio c/w:    11.909 speedup
 ANC optimizer:
 * wall-time:     0 d,  0 h,  0 min,  3.647 sec
 *  cpu-time:     0 d,  0 h,  0 min, 42.472 sec
 * ratio c/w:    11.644 speedup
 analytical hessian:
 * wall-time:     0 d,  0 h,  0 min,  3.116 sec
 *  cpu-time:     0 d,  0 h,  0 min, 25.058 sec
 * ratio c/w:     8.042 speedup

