      -----------------------------------------------------------      
     |                   =====================                   |     
     |                           x T B                           |     
     |                   =====================                   |     
     |                         S. Grimme                         |     
     |          Mulliken Center for Theoretical Chemistry        |     
     |                    University of Bonn                     |     
      -----------------------------------------------------------      

   * xtb version 6.7.0 (08769fc) compiled by 'albert@albert-system' on 2024-03-04

   xtb is free software: you can redistribute it and/or modify it under
   the terms of the GNU Lesser General Public License as published by
   the Free Software Foundation, either version 3 of the License, or
   (at your option) any later version.
   
   xtb is distributed in the hope that it will be useful,
   but WITHOUT ANY WARRANTY; without even the implied warranty of
   MERCHANTABILITY or FITNESS FOR A PARTICULAR PURPOSE.  See the
   GNU Lesser General Public License for more details.
   
   Cite this work as:
   * C. Bannwarth, E. Caldeweyher, S. Ehlert, A. Hansen, P. Pracht,
     J. Seibert, S. Spicher, S. Grimme, WIREs Comput. Mol. Sci., 2020, 11,
     e01493. DOI: 10.1002/wcms.1493
   
   for GFN2-xTB:
   * C. Bannwarth, S. Ehlert and S. Grimme., J. Chem. Theory Comput., 2019,
     15, 1652-1671. DOI: 10.1021/acs.jctc.8b01176
   for GFN1-xTB:
   * S. Grimme, C. Bannwarth, P. Shushkov, J. Chem. Theory Comput., 2017,
     13, 1989-2009. DOI: 10.1021/acs.jctc.7b00118
   for GFN0-xTB:
   * P. Pracht, E. Caldeweyher, S. Ehlert, S. Grimme, ChemRxiv, 2019, preprint.
     DOI: 10.26434/chemrxiv.8326202.v1
   for GFN-FF:
   * S. Spicher and S. Grimme, Angew. Chem. Int. Ed., 2020, 59, 15665-15673.
     DOI: 10.1002/anie.202004239
   
   for ALPB and GBSA implicit solvation:
   * S. Ehlert, M. Stahn, S. Spicher, S. Grimme, J. Chem. Theory Comput.,
     2021, 17, 4250-4261. DOI: 10.1021/acs.jctc.1c00471
   
   for ddCOSMO and CPCM-X implicit solvation:
   * M. Stahn, S. Ehlert, S. Grimme, J. Phys. Chem. A,
     2023, XX, XXXX-XXXX. DOI: 10.1021/acs.jpca.3c04382
   
   for DFT-D4:
   * E. Caldeweyher, C. Bannwarth and S. Grimme, J. Chem. Phys., 2017,
     147, 034112. DOI: 10.1063/1.4993215
   * E. Caldeweyher, S. Ehlert, A. Hansen, H. Neugebauer, S. Spicher,
     C. Bannwarth and S. Grimme, J. Chem. Phys., 2019, 150, 154122.
     DOI: 10.1063/1.5090222
   * E. Caldeweyher, J.-M. Mewes, S. Ehlert and S. Grimme, Phys. Chem. Chem. Phys.
     2020, 22, 8499-8512. DOI: 10.1039/D0CP00502A
   
   for sTDA-xTB:
   * S. Grimme and C. Bannwarth, J. Chem. Phys., 2016, 145, 054103.
     DOI: 10.1063/1.4959605
   
   in the mass-spec context:
   * V. Asgeirsson, C. Bauer and S. Grimme, Chem. Sci., 2017, 8, 4879.
     DOI: 10.1039/c7sc00601b
   * J. Koopman and S. Grimme, ACS Omega 2019, 4, 12, 15120-15133.
     DOI: 10.1021/acsomega.9b02011
   
   for metadynamics refer to:
   * S. Grimme, J. Chem. Theory Comput., 2019, 155, 2847-2862
     DOI: 10.1021/acs.jctc.9b00143
   
   for SPH calculations refer to:
   * S. Spicher and S. Grimme, J. Chem. Theory Comput., 2021, 17, 1701-1714
     DOI: 10.1021/acs.jctc.0c01306
   
   for ONIOM refer to:
   * C. Plett, A. Katbashev, S. Ehlert, S. Grimme, M. Bursch,
     Phys. Chem. Chem. Phys., 2023, 25, 17860-17868. DOI: 10.1039/D3CP02178E
   
   for DIPRO refer to:
   * J. Kohn, N. Gildemeister, S. Grimme, D. Fazzi, A. Hansen,
     J. Chem. Phys., 2023, just accepted.
   
   for PTB refer to:
   * S. Grimme, M. Mueller, A. Hansen, J. Chem. Phys., 2023, 158, 124111.
     DOI: 10.1063/5.0137838
   
   with help from (in alphabetical order)
   P. Atkinson, C. Bannwarth, F. Bohle, G. Brandenburg, E. Caldeweyher
   M. Checinski, S. Dohm, S. Ehlert, S. Ehrlich, I. Gerasimov, C. Hölzer
   A. Katbashev, J. Kohn, J. Koopman, C. Lavigne, S. Lehtola, F. März, M. Müller,
   F. Musil, H. Neugebauer, J. Pisarek, C. Plett, P. Pracht, F. Pultar,
   J. Seibert, P. Shushkov, S. Spicher, M. Stahn, M. Steiner, T. Strunk,
   J. Stückrath, T. Rose, and J. Unsleber
   
 * started run on 2025/07/14 at 11:32:29.037     
   ID    Z sym.   atoms
    1   15 P      1
    2    6 C      2, 5, 9-14, 20, 23
    3    1 H      3, 4, 6-8, 15-19, 21, 22, 24-26

           -------------------------------------------------
          |                Calculation Setup                |
           -------------------------------------------------

          program call               : /home/minenky/programs/xtb/xtb-dist/bin/xtb m1_00_PEt2Ph-PBE0-D3-TZ-uniMM_42.xyz --charge 0 --T --ohess extreme --cycles 5000 --acc 0.01 --iterations 5000
          coordinate file            : m1_00_PEt2Ph-PBE0-D3-TZ-uniMM_42.xyz
          omp threads                :                    12

########################################################################
[WARNING] Please study the warnings concerning your input carefully
-1- prog_main_parseArguments: Unknown option '--T' provided
########################################################################

           -------------------------------------------------
          |                 G F N 2 - x T B                 |
           -------------------------------------------------

        Reference                      10.1021/acs.jctc.8b01176
      * Hamiltonian:
        H0-scaling (s, p, d)           1.850000    2.230000    2.230000
        zeta-weighting                 0.500000
      * Dispersion:
        s8                             2.700000
        a1                             0.520000
        a2                             5.000000
        s9                             5.000000
      * Repulsion:
        kExp                           1.500000    1.000000
        rExp                           1.000000
      * Coulomb:
        alpha                          2.000000
        third order                    shell-resolved
        anisotropic                    true
        a3                             3.000000
        a5                             4.000000
        cn-shift                       1.200000
        cn-exp                         4.000000
        max-rad                        5.000000


          ...................................................
          :                      SETUP                      :
          :.................................................:
          :  # basis functions                  65          :
          :  # atomic orbitals                  64          :
          :  # shells                           38          :
          :  # electrons                        60          :
          :  max. iterations                  5000          :
          :  Hamiltonian                  GFN2-xTB          :
          :  restarted?                      false          :
          :  GBSA solvation                  false          :
          :  PC potential                    false          :
          :  electronic temp.          300.0000000     K    :
          :  accuracy                    0.0100000          :
          :  -> integral cutoff          0.4500000E+02      :
          :  -> integral neglect         0.1000000E-09      :
          :  -> SCF convergence          0.1000000E-07 Eh   :
          :  -> wf. convergence          0.1000000E-05 e    :
          :  Broyden damping             0.4000000          :
          :  net charge                          0          :
          :  unpaired electrons                  0          :
          ...................................................

 iter      E             dE          RMSdq      gap      omega  full diag
   1    -32.0135676 -0.320136E+02  0.394E+00    4.01       0.0  T
   2    -32.0566171 -0.430495E-01  0.238E+00    3.65       1.0  T
   3    -32.0560517  0.565426E-03  0.885E-01    3.42       1.0  T
   4    -32.0576541 -0.160243E-02  0.264E-01    3.47       1.0  T
   5    -32.0586465 -0.992385E-03  0.133E-01    3.51       1.0  T
   6    -32.0588887 -0.242192E-03  0.451E-02    3.49       1.0  T
   7    -32.0589014 -0.127351E-04  0.148E-02    3.50       1.3  T
   8    -32.0589020 -0.604159E-06  0.654E-03    3.50       3.0  T
   9    -32.0589023 -0.315508E-06  0.173E-03    3.50      11.4  T
  10    -32.0589024 -0.399457E-07  0.534E-04    3.50      36.7  T
  11    -32.0589024 -0.623253E-09  0.259E-04    3.50      75.7  T
  12    -32.0589024 -0.296254E-09  0.461E-05    3.50     425.0  T
  13    -32.0589024 -0.615330E-11  0.212E-05    3.50     926.8  T
  14    -32.0589024 -0.208189E-11  0.681E-06    3.50    2878.2  T
  15    -32.0589024 -0.127898E-12  0.169E-06    3.50   11627.8  T

   *** convergence criteria satisfied after 15 iterations ***

         #    Occupation            Energy/Eh            Energy/eV
      -------------------------------------------------------------
         1        2.0000           -0.6602093             -17.9652
       ...           ...                  ...                  ...
        24        2.0000           -0.4414479             -12.0124
        25        2.0000           -0.4248547             -11.5609
        26        2.0000           -0.4153901             -11.3033
        27        2.0000           -0.4086956             -11.1212
        28        2.0000           -0.4015520             -10.9268
        29        2.0000           -0.3986168             -10.8469
        30        2.0000           -0.3573569              -9.7242 (HOMO)
        31                         -0.2287664              -6.2251 (LUMO)
        32                         -0.2220570              -6.0425
        33                         -0.1558563              -4.2411
        34                         -0.1433615              -3.9011
        35                         -0.0982173              -2.6726
       ...                                ...                  ...
        64                          0.7794470              21.2098
      -------------------------------------------------------------
                  HL-Gap            0.1285906 Eh            3.4991 eV
             Fermi-level           -0.2930617 Eh           -7.9746 eV

 SCC (total)                   0 d,  0 h,  0 min,  0.087 sec
 SCC setup                      ...        0 min,  0.000 sec (  0.164%)
 Dispersion                     ...        0 min,  0.000 sec (  0.140%)
 classical contributions        ...        0 min,  0.000 sec (  0.012%)
 integral evaluation            ...        0 min,  0.002 sec (  2.265%)
 iterations                     ...        0 min,  0.082 sec ( 95.227%)
 molecular gradient             ...        0 min,  0.002 sec (  2.079%)
 printout                       ...        0 min,  0.000 sec (  0.094%)

         :::::::::::::::::::::::::::::::::::::::::::::::::::::
         ::                     SUMMARY                     ::
         :::::::::::::::::::::::::::::::::::::::::::::::::::::
         :: total energy             -31.543911551683 Eh    ::
         :: gradient norm              0.031665411591 Eh/a0 ::
         :: HOMO-LUMO gap              3.499127093023 eV    ::
         ::.................................................::
         :: SCC energy               -32.058723253554 Eh    ::
         :: -> isotropic ES            0.004222972106 Eh    ::
         :: -> anisotropic ES          0.006405967240 Eh    ::
         :: -> anisotropic XC          0.021538085793 Eh    ::
         :: -> dispersion             -0.023707616172 Eh    ::
         :: repulsion energy           0.514811701871 Eh    ::
         :: add. restraining           0.000000000000 Eh    ::
         :: total charge               0.000000000000 e     ::
         :::::::::::::::::::::::::::::::::::::::::::::::::::::

      ----------------------------------------------------------- 
     |                   =====================                   |
     |                        A N C O P T                        |
     |                   =====================                   |
     |               Approximate Normal Coordinate               |
     |                Rational Function Optimizer                |
      ----------------------------------------------------------- 
      ----------------------------------------------------------- 
     |                   =====================                   |
     |                        A N C O P T                        |
     |                   =====================                   |
     |               Approximate Normal Coordinate               |
     |                Rational Function Optimizer                |
      ----------------------------------------------------------- 

          ...................................................
          :                      SETUP                      :
          :.................................................:
          :   optimization level           extreme          :
          :   max. optcycles                  5000          :
          :   ANC micro-cycles                  20          :
          :   degrees of freedom                72          :
          :.................................................:
          :   RF solver                   davidson          :
          :   write xtbopt.log                true          :
          :   linear?                        false          :
          :   energy convergence         0.5000000E-07 Eh   :
          :   grad. convergence          0.5000000E-04 Eh/α :
          :   maxmium RF displ.          1.0000000          :
          :   Hlow (freq-cutoff)         0.1000000E-01      :
          :   Hmax (freq-cutoff)         5.0000000          :
          :   S6 in model hess.         20.0000000          :
          ...................................................

generating ANC from model Hessian ...
Using Lindh-Hessian (1995)
 Shifting diagonal of input Hessian by   9.693823569056447E-003
 Lowest  eigenvalues of input Hessian
    0.000000    0.000000    0.000000    0.000000    0.000000    0.000000
    0.010000    0.010468    0.010717    0.012132    0.012319    0.012550
    0.015846    0.018258    0.019441    0.020289    0.024274    0.025164
 Highest eigenvalues
    1.347420    1.535918    1.562301    1.864754    1.966427    1.986082
 

........................................................................
.............................. CYCLE    1 ..............................
........................................................................

 iter      E             dE          RMSdq      gap      omega  full diag
   1    -32.0589024 -0.320589E+02  0.980E-07    3.50       0.0  T
   2    -32.0589024 -0.639488E-13  0.586E-07    3.50   33472.2  T
   3    -32.0589024  0.000000E+00  0.387E-07    3.50   50650.4  T
     SCC iter.                  ...        0 min,  0.073 sec
     gradient                   ...        0 min,  0.002 sec
 * total energy  :   -31.5439116 Eh     change       -0.2842171E-13 Eh
   gradient norm :     0.0316654 Eh/α   predicted     0.0000000E+00 (-100.00%)
   displ. norm   :     0.3582198 α      lambda       -0.5340905E-02
   maximum displ.:     0.2171803 α      in ANC's #1, #8, #2, ...

........................................................................
.............................. CYCLE    2 ..............................
........................................................................

 iter      E             dE          RMSdq      gap      omega  full diag
   1    -32.0665699 -0.320666E+02  0.251E-01    3.59       0.0  T
   2    -32.0666442 -0.742893E-04  0.134E-01    3.60       1.0  T
   3    -32.0666444 -0.218272E-06  0.458E-02    3.62       1.0  T
   4    -32.0666449 -0.473296E-06  0.238E-02    3.61       1.0  T
   5    -32.0666542 -0.925433E-05  0.754E-03    3.61       2.6  T
   6    -32.0666545 -0.370402E-06  0.324E-03    3.61       6.0  T
   7    -32.0666545 -0.132529E-07  0.755E-04    3.61      26.0  T
   8    -32.0666545 -0.929830E-09  0.295E-04    3.61      66.6  T
   9    -32.0666545 -0.135666E-08  0.724E-05    3.61     271.0  T
  10    -32.0666545 -0.729514E-10  0.279E-05    3.61     701.9  T
  11    -32.0666545 -0.138556E-11  0.137E-05    3.61    1430.5  T
  12    -32.0666545 -0.152056E-11  0.359E-06    3.61    5460.2  T
  13    -32.0666545 -0.213163E-13  0.183E-06    3.61   10724.5  T
     SCC iter.                  ...        0 min,  0.075 sec
     gradient                   ...        0 min,  0.002 sec
 * total energy  :   -31.5471562 Eh     change       -0.3244625E-02 Eh
   gradient norm :     0.0127055 Eh/α   predicted    -0.3013196E-02 (  -7.13%)
   displ. norm   :     0.3268047 α      lambda       -0.1471665E-02
   maximum displ.:     0.1995315 α      in ANC's #1, #2, #4, ...

........................................................................
.............................. CYCLE    3 ..............................
........................................................................

 iter      E             dE          RMSdq      gap      omega  full diag
   1    -32.0685740 -0.320686E+02  0.119E-01    3.60       0.0  T
   2    -32.0685785 -0.446206E-05  0.702E-02    3.59       1.0  T
   3    -32.0685784  0.976020E-07  0.109E-02    3.58       1.8  T
   4    -32.0685791 -0.732607E-06  0.438E-03    3.58       4.5  T
   5    -32.0685792 -0.390560E-07  0.146E-03    3.58      13.4  T
   6    -32.0685792 -0.465236E-08  0.885E-04    3.58      22.2  T
   7    -32.0685792 -0.697126E-08  0.197E-04    3.58      99.4  T
   8    -32.0685792 -0.160213E-09  0.606E-05    3.58     323.6  T
   9    -32.0685792 -0.130242E-10  0.184E-05    3.58    1064.6  T
  10    -32.0685792 -0.216716E-11  0.759E-06    3.58    2583.4  T
  11    -32.0685792 -0.582645E-12  0.308E-06    3.58    6368.0  T
     SCC iter.                  ...        0 min,  0.074 sec
     gradient                   ...        0 min,  0.002 sec
 * total energy  :   -31.5481677 Eh     change       -0.1011533E-02 Eh
   gradient norm :     0.0060378 Eh/α   predicted    -0.8144421E-03 ( -19.48%)
   displ. norm   :     0.3310795 α      lambda       -0.7844878E-03
   maximum displ.:     0.1844089 α      in ANC's #1, #2, #4, ...

........................................................................
.............................. CYCLE    4 ..............................
........................................................................

 iter      E             dE          RMSdq      gap      omega  full diag
   1    -32.0668848 -0.320669E+02  0.107E-01    3.60       0.0  T
   2    -32.0668895 -0.470972E-05  0.627E-02    3.60       1.0  T
   3    -32.0668891  0.353659E-06  0.133E-02    3.60       1.5  T
   4    -32.0668901 -0.974150E-06  0.384E-03    3.60       5.1  T
   5    -32.0668901 -0.348891E-07  0.128E-03    3.60      15.3  T
   6    -32.0668902 -0.299411E-07  0.558E-04    3.60      35.2  T
   7    -32.0668902 -0.134353E-08  0.151E-04    3.60     129.7  T
   8    -32.0668902 -0.434852E-10  0.658E-05    3.60     298.1  T
   9    -32.0668902 -0.368203E-10  0.168E-05    3.60    1167.0  T
  10    -32.0668902 -0.172662E-11  0.921E-06    3.60    2129.2  T
  11    -32.0668902 -0.731859E-12  0.300E-06    3.60    6526.5  T
     SCC iter.                  ...        0 min,  0.074 sec
     gradient                   ...        0 min,  0.002 sec
 * total energy  :   -31.5487391 Eh     change       -0.5713515E-03 Eh
   gradient norm :     0.0059978 Eh/α   predicted    -0.4352458E-03 ( -23.82%)
   displ. norm   :     0.3347500 α      lambda       -0.5402797E-03
   maximum displ.:     0.1941832 α      in ANC's #2, #1, #4, ...

........................................................................
.............................. CYCLE    5 ..............................
........................................................................

 iter      E             dE          RMSdq      gap      omega  full diag
   1    -32.0658920 -0.320659E+02  0.109E-01    3.60       0.0  T
   2    -32.0658942 -0.223694E-05  0.637E-02    3.59       1.0  T
   3    -32.0658935  0.749561E-06  0.130E-02    3.59       1.5  T
   4    -32.0658946 -0.112581E-05  0.247E-03    3.59       7.9  T
   5    -32.0658946 -0.352429E-07  0.123E-03    3.59      15.9  T
   6    -32.0658947 -0.302534E-07  0.529E-04    3.59      37.1  T
   7    -32.0658947 -0.925368E-09  0.138E-04    3.59     141.6  T
   8    -32.0658947 -0.214186E-09  0.457E-05    3.59     429.3  T
   9    -32.0658947 -0.212239E-10  0.181E-05    3.59    1082.1  T
  10    -32.0658947 -0.161293E-11  0.660E-06    3.59    2972.2  T
  11    -32.0658947 -0.333955E-12  0.226E-06    3.59    8678.8  T
     SCC iter.                  ...        0 min,  0.074 sec
     gradient                   ...        0 min,  0.002 sec
 * total energy  :   -31.5491526 Eh     change       -0.4135698E-03 Eh
   gradient norm :     0.0068287 Eh/α   predicted    -0.3004210E-03 ( -27.36%)
   displ. norm   :     0.3521305 α      lambda       -0.4839647E-03
   maximum displ.:     0.2130675 α      in ANC's #2, #1, #5, ...

........................................................................
.............................. CYCLE    6 ..............................
........................................................................

 iter      E             dE          RMSdq      gap      omega  full diag
   1    -32.0660183 -0.320660E+02  0.115E-01    3.60       0.0  T
   2    -32.0660207 -0.245742E-05  0.673E-02    3.59       1.0  T
   3    -32.0660197  0.101047E-05  0.166E-02    3.59       1.2  T
   4    -32.0660213 -0.155312E-05  0.226E-03    3.59       8.7  T
   5    -32.0660213 -0.172285E-07  0.138E-03    3.59      14.2  T
   6    -32.0660213 -0.259410E-07  0.606E-04    3.59      32.3  T
   7    -32.0660213 -0.157073E-08  0.136E-04    3.59     143.9  T
   8    -32.0660213 -0.146585E-09  0.548E-05    3.59     357.6  T
   9    -32.0660213 -0.410338E-10  0.208E-05    3.59     941.9  T
  10    -32.0660213 -0.151346E-11  0.684E-06    3.59    2868.8  T
  11    -32.0660213 -0.426326E-12  0.291E-06    3.59    6745.0  T
     SCC iter.                  ...        0 min,  0.077 sec
     gradient                   ...        0 min,  0.002 sec
 * total energy  :   -31.5495227 Eh     change       -0.3701170E-03 Eh
   gradient norm :     0.0052568 Eh/α   predicted    -0.2719949E-03 ( -26.51%)
   displ. norm   :     0.3547320 α      lambda       -0.4027571E-03
   maximum displ.:     0.2178747 α      in ANC's #2, #5, #1, ...

........................................................................
.............................. CYCLE    7 ..............................
........................................................................

 iter      E             dE          RMSdq      gap      omega  full diag
   1    -32.0672944 -0.320673E+02  0.113E-01    3.60       0.0  T
   2    -32.0672973 -0.296080E-05  0.663E-02    3.60       1.0  T
   3    -32.0672962  0.110120E-05  0.183E-02    3.60       1.1  T
   4    -32.0672980 -0.176517E-05  0.231E-03    3.60       8.5  T
   5    -32.0672980 -0.147625E-07  0.135E-03    3.60      14.5  T
   6    -32.0672980 -0.224245E-07  0.543E-04    3.60      36.1  T
   7    -32.0672980 -0.140652E-08  0.145E-04    3.60     135.4  T
   8    -32.0672980 -0.136154E-09  0.481E-05    3.60     407.9  T
   9    -32.0672980 -0.267306E-10  0.237E-05    3.60     825.9  T
  10    -32.0672980 -0.306244E-11  0.817E-06    3.60    2401.5  T
  11    -32.0672980 -0.220268E-12  0.412E-06    3.60    4763.5  T
     SCC iter.                  ...        0 min,  0.076 sec
     gradient                   ...        0 min,  0.002 sec
 * total energy  :   -31.5498224 Eh     change       -0.2997005E-03 Eh
   gradient norm :     0.0039645 Eh/α   predicted    -0.2267201E-03 ( -24.35%)
   displ. norm   :     0.3461404 α      lambda       -0.2960159E-03
   maximum displ.:     0.2080056 α      in ANC's #2, #5, #6, ...

........................................................................
.............................. CYCLE    8 ..............................
........................................................................

 iter      E             dE          RMSdq      gap      omega  full diag
   1    -32.0683807 -0.320684E+02  0.102E-01    3.61       0.0  T
   2    -32.0683831 -0.235564E-05  0.610E-02    3.61       1.0  T
   3    -32.0683820  0.102074E-05  0.151E-02    3.61       1.3  T
   4    -32.0683836 -0.153116E-05  0.236E-03    3.61       8.3  T
   5    -32.0683836 -0.260158E-07  0.125E-03    3.61      15.7  T
   6    -32.0683836 -0.194003E-07  0.491E-04    3.61      40.0  T
   7    -32.0683836 -0.109123E-08  0.150E-04    3.61     130.9  T
   8    -32.0683836 -0.994689E-10  0.427E-05    3.61     459.7  T
   9    -32.0683836 -0.988365E-11  0.200E-05    3.61     982.0  T
  10    -32.0683836 -0.121503E-11  0.789E-06    3.61    2485.0  T
  11    -32.0683836 -0.518696E-12  0.273E-06    3.61    7170.6  T
     SCC iter.                  ...        0 min,  0.075 sec
     gradient                   ...        0 min,  0.002 sec
 * total energy  :   -31.5500491 Eh     change       -0.2266717E-03 Eh
   gradient norm :     0.0054674 Eh/α   predicted    -0.1657422E-03 ( -26.88%)
   displ. norm   :     0.3691406 α      lambda       -0.3006526E-03
   maximum displ.:     0.2150694 α      in ANC's #2, #5, #6, ...

........................................................................
.............................. CYCLE    9 ..............................
........................................................................

 iter      E             dE          RMSdq      gap      omega  full diag
   1    -32.0698997 -0.320699E+02  0.104E-01    3.62       0.0  T
   2    -32.0699020 -0.233628E-05  0.628E-02    3.62       1.0  T
   3    -32.0699008  0.116141E-05  0.144E-02    3.62       1.4  T
   4    -32.0699025 -0.164823E-05  0.268E-03    3.62       7.3  T
   5    -32.0699025 -0.356799E-07  0.140E-03    3.62      14.0  T
   6    -32.0699025 -0.297886E-07  0.540E-04    3.62      36.3  T
   7    -32.0699025 -0.608175E-09  0.151E-04    3.62     129.5  T
   8    -32.0699025 -0.108827E-09  0.527E-05    3.62     372.4  T
   9    -32.0699025 -0.160298E-10  0.246E-05    3.62     798.4  T
  10    -32.0699025 -0.290612E-11  0.882E-06    3.62    2224.0  T
  11    -32.0699025 -0.746070E-12  0.303E-06    3.62    6464.4  T
     SCC iter.                  ...        0 min,  0.075 sec
     gradient                   ...        0 min,  0.002 sec
 * total energy  :   -31.5502846 Eh     change       -0.2354802E-03 Eh
   gradient norm :     0.0074487 Eh/α   predicted    -0.1708171E-03 ( -27.46%)
   displ. norm   :     0.4207106 α      lambda       -0.3583385E-03
   maximum displ.:     0.2362329 α      in ANC's #2, #5, #6, ...

........................................................................
.............................. CYCLE   10 ..............................
........................................................................

 iter      E             dE          RMSdq      gap      omega  full diag
   1    -32.0700069 -0.320700E+02  0.115E-01    3.63       0.0  T
   2    -32.0700092 -0.235194E-05  0.693E-02    3.63       1.0  T
   3    -32.0700080  0.120405E-05  0.124E-02    3.63       1.6  T
   4    -32.0700096 -0.160538E-05  0.373E-03    3.63       5.3  T
   5    -32.0700097 -0.974631E-07  0.153E-03    3.63      12.8  T
   6    -32.0700097 -0.326397E-07  0.590E-04    3.63      33.2  T
   7    -32.0700097 -0.752394E-09  0.184E-04    3.63     106.9  T
   8    -32.0700097 -0.148184E-09  0.675E-05    3.63     290.7  T
   9    -32.0700097 -0.447145E-10  0.269E-05    3.63     728.8  T
  10    -32.0700097 -0.338929E-11  0.985E-06    3.63    1990.3  T
  11    -32.0700097 -0.582645E-12  0.359E-06    3.63    5462.3  T
     SCC iter.                  ...        0 min,  0.075 sec
     gradient                   ...        0 min,  0.002 sec
 * total energy  :   -31.5505719 Eh     change       -0.2873092E-03 Eh
   gradient norm :     0.0082708 Eh/α   predicted    -0.2108827E-03 ( -26.60%)
   displ. norm   :     0.4308106 α      lambda       -0.5051894E-03
   maximum displ.:     0.2413649 α      in ANC's #4, #2, #5, ...

........................................................................
.............................. CYCLE   11 ..............................
........................................................................

 iter      E             dE          RMSdq      gap      omega  full diag
   1    -32.0735642 -0.320736E+02  0.119E-01    3.64       0.0  T
   2    -32.0735664 -0.212810E-05  0.709E-02    3.64       1.0  T
   3    -32.0735656  0.788881E-06  0.948E-03    3.64       2.1  T
   4    -32.0735666 -0.103293E-05  0.415E-03    3.64       4.7  T
   5    -32.0735668 -0.179191E-06  0.128E-03    3.64      15.3  T
   6    -32.0735668 -0.182046E-07  0.594E-04    3.64      33.0  T
   7    -32.0735668 -0.381256E-09  0.170E-04    3.64     115.0  T
   8    -32.0735668 -0.250367E-09  0.734E-05    3.64     267.3  T
   9    -32.0735668 -0.464908E-10  0.351E-05    3.64     558.4  T
  10    -32.0735668 -0.473221E-11  0.708E-06    3.64    2769.7  T
  11    -32.0735668 -0.120792E-12  0.265E-06    3.64    7399.5  T
     SCC iter.                  ...        0 min,  0.075 sec
     gradient                   ...        0 min,  0.002 sec
 * total energy  :   -31.5509442 Eh     change       -0.3722718E-03 Eh
   gradient norm :     0.0077397 Eh/α   predicted    -0.2994811E-03 ( -19.55%)
   displ. norm   :     0.6264255 α      lambda       -0.6024853E-03
   maximum displ.:     0.3494360 α      in ANC's #2, #5, #4, ...

........................................................................
.............................. CYCLE   12 ..............................
........................................................................

 iter      E             dE          RMSdq      gap      omega  full diag
   1    -32.0647687 -0.320648E+02  0.173E-01    3.65       0.0  T
   2    -32.0647801 -0.113959E-04  0.103E-01    3.65       1.0  T
   3    -32.0647786  0.148773E-05  0.243E-02    3.64       1.0  T
   4    -32.0647815 -0.287563E-05  0.739E-03    3.65       2.7  T
   5    -32.0647817 -0.141591E-06  0.346E-03    3.65       5.7  T
   6    -32.0647818 -0.136679E-06  0.142E-03    3.65      13.8  T
   7    -32.0647818 -0.104284E-07  0.476E-04    3.65      41.2  T
   8    -32.0647818 -0.197261E-09  0.128E-04    3.65     153.2  T
   9    -32.0647818 -0.171703E-09  0.556E-05    3.65     352.6  T
  10    -32.0647818 -0.147722E-10  0.202E-05    3.65     972.9  T
  11    -32.0647818 -0.333245E-11  0.731E-06    3.65    2684.1  T
  12    -32.0647818 -0.319744E-12  0.250E-06    3.65    7852.3  T
     SCC iter.                  ...        0 min,  0.075 sec
     gradient                   ...        0 min,  0.002 sec
 * total energy  :   -31.5512325 Eh     change       -0.2883339E-03 Eh
   gradient norm :     0.0137469 Eh/α   predicted    -0.4194546E-03 (  45.48%)
   displ. norm   :     0.2552631 α      lambda       -0.9030505E-03
   maximum displ.:     0.1375797 α      in ANC's #4, #8, #1, ...

........................................................................
.............................. CYCLE   13 ..............................
........................................................................

 iter      E             dE          RMSdq      gap      omega  full diag
   1    -32.0685123 -0.320685E+02  0.111E-01    3.65       0.0  T
   2    -32.0685189 -0.653023E-05  0.550E-02    3.64       1.0  T
   3    -32.0685185  0.354826E-06  0.315E-02    3.65       1.0  T
   4    -32.0685200 -0.151991E-05  0.529E-03    3.65       3.7  T
   5    -32.0685200  0.337841E-07  0.335E-03    3.65       5.9  T
   6    -32.0685201 -0.807894E-07  0.133E-03    3.65      14.7  T
   7    -32.0685201 -0.641685E-08  0.329E-04    3.65      59.6  T
   8    -32.0685201 -0.127947E-09  0.894E-05    3.65     219.3  T
   9    -32.0685201 -0.498019E-10  0.455E-05    3.65     431.4  T
  10    -32.0685201 -0.469669E-11  0.139E-05    3.65    1406.4  T
  11    -32.0685201 -0.297007E-11  0.494E-06    3.65    3968.8  T
  12    -32.0685201 -0.852651E-13  0.196E-06    3.65    9982.7  T
     SCC iter.                  ...        0 min,  0.075 sec
     gradient                   ...        0 min,  0.002 sec
 * total energy  :   -31.5516143 Eh     change       -0.3817649E-03 Eh
   gradient norm :     0.0107196 Eh/α   predicted    -0.4809532E-03 (  25.98%)
   displ. norm   :     0.3893459 α      lambda       -0.6790120E-03
   maximum displ.:     0.2595958 α      in ANC's #4, #2, #5, ...

........................................................................
.............................. CYCLE   14 ..............................
........................................................................

 iter      E             dE          RMSdq      gap      omega  full diag
   1    -32.0689242 -0.320689E+02  0.107E-01    3.66       0.0  T
   2    -32.0689332 -0.900162E-05  0.628E-02    3.66       1.0  T
   3    -32.0689332 -0.141677E-07  0.218E-02    3.65       1.0  T
   4    -32.0689341 -0.953875E-06  0.548E-03    3.65       3.6  T
   5    -32.0689341 -0.152285E-07  0.303E-03    3.65       6.5  T
   6    -32.0689342 -0.400781E-07  0.120E-03    3.65      16.3  T
   7    -32.0689342 -0.398943E-08  0.350E-04    3.65      56.1  T
   8    -32.0689342 -0.814197E-09  0.804E-05    3.65     244.0  T
   9    -32.0689342 -0.240874E-10  0.536E-05    3.65     365.9  T
  10    -32.0689342 -0.570566E-11  0.151E-05    3.65    1300.5  T
  11    -32.0689342 -0.245137E-11  0.388E-06    3.65    5053.0  T
  12    -32.0689342  0.142109E-13  0.135E-06    3.65   14575.0  T
     SCC iter.                  ...        0 min,  0.077 sec
     gradient                   ...        0 min,  0.002 sec
 * total energy  :   -31.5520644 Eh     change       -0.4501564E-03 Eh
   gradient norm :     0.0097298 Eh/α   predicted    -0.3909725E-03 ( -13.15%)
   displ. norm   :     0.3616829 α      lambda       -0.4878085E-03
   maximum displ.:     0.2065776 α      in ANC's #2, #4, #5, ...

........................................................................
.............................. CYCLE   15 ..............................
........................................................................

 iter      E             dE          RMSdq      gap      omega  full diag
   1    -32.0681335 -0.320681E+02  0.958E-02    3.66       0.0  T
   2    -32.0681378 -0.426061E-05  0.563E-02    3.66       1.0  T
   3    -32.0681372  0.575078E-06  0.170E-02    3.66       1.2  T
   4    -32.0681384 -0.115744E-05  0.503E-03    3.66       3.9  T
   5    -32.0681384 -0.400433E-08  0.274E-03    3.66       7.2  T
   6    -32.0681385 -0.108464E-06  0.122E-03    3.66      16.1  T
   7    -32.0681385 -0.237577E-08  0.270E-04    3.66      72.6  T
   8    -32.0681385 -0.982041E-10  0.567E-05    3.66     345.6  T
   9    -32.0681385 -0.289475E-10  0.272E-05    3.66     720.0  T
  10    -32.0681385 -0.253664E-11  0.859E-06    3.66    2282.4  T
  11    -32.0681385 -0.298428E-12  0.473E-06    3.66    4148.0  T
     SCC iter.                  ...        0 min,  0.075 sec
     gradient                   ...        0 min,  0.002 sec
 * total energy  :   -31.5523759 Eh     change       -0.3114938E-03 Eh
   gradient norm :     0.0094414 Eh/α   predicted    -0.2758128E-03 ( -11.45%)
   displ. norm   :     0.2140222 α      lambda       -0.4937007E-03
   maximum displ.:     0.1197023 α      in ANC's #2, #1, #47, ...

........................................................................
.............................. CYCLE   16 ..............................
........................................................................

 iter      E             dE          RMSdq      gap      omega  full diag
   1    -32.0752657 -0.320753E+02  0.808E-02    3.66       0.0  T
   2    -32.0752695 -0.377023E-05  0.462E-02    3.66       1.0  T
   3    -32.0752692  0.284404E-06  0.107E-02    3.67       1.8  T
   4    -32.0752697 -0.518708E-06  0.504E-03    3.67       3.9  T
   5    -32.0752700 -0.234618E-06  0.164E-03    3.67      12.0  T
   6    -32.0752700 -0.261441E-07  0.778E-04    3.67      25.2  T
   7    -32.0752700 -0.362086E-08  0.266E-04    3.67      73.6  T
   8    -32.0752700 -0.103533E-09  0.791E-05    3.67     248.0  T
   9    -32.0752700 -0.282299E-10  0.363E-05    3.67     539.5  T
  10    -32.0752700 -0.257216E-11  0.133E-05    3.67    1474.7  T
  11    -32.0752700 -0.121503E-11  0.473E-06    3.67    4142.4  T
  12    -32.0752700 -0.241585E-12  0.139E-06    3.67   14127.0  T
     SCC iter.                  ...        0 min,  0.076 sec
     gradient                   ...        0 min,  0.002 sec
 * total energy  :   -31.5526007 Eh     change       -0.2247984E-03 Eh
   gradient norm :     0.0083380 Eh/α   predicted    -0.2581628E-03 (  14.84%)
   displ. norm   :     0.5413458 α      lambda       -0.6198396E-03
   maximum displ.:     0.3265731 α      in ANC's #2, #4, #5, ...

........................................................................
.............................. CYCLE   17 ..............................
........................................................................

 iter      E             dE          RMSdq      gap      omega  full diag
   1    -32.0677727 -0.320678E+02  0.147E-01    3.68       0.0  T
   2    -32.0677833 -0.106022E-04  0.897E-02    3.69       1.0  T
   3    -32.0677814  0.191191E-05  0.261E-02    3.68       1.0  T
   4    -32.0677848 -0.336977E-05  0.646E-03    3.69       3.0  T
   5    -32.0677848 -0.513462E-07  0.419E-03    3.69       4.7  T
   6    -32.0677851 -0.260663E-06  0.154E-03    3.68      12.7  T
   7    -32.0677851 -0.536792E-08  0.421E-04    3.69      46.6  T
   8    -32.0677851 -0.222670E-09  0.109E-04    3.69     180.6  T
   9    -32.0677851 -0.989147E-10  0.582E-05    3.69     336.8  T
  10    -32.0677851 -0.142961E-10  0.194E-05    3.69    1011.8  T
  11    -32.0677851 -0.250822E-11  0.757E-06    3.69    2591.8  T
  12    -32.0677851 -0.262901E-12  0.206E-06    3.69    9497.7  T
     SCC iter.                  ...        0 min,  0.077 sec
     gradient                   ...        0 min,  0.002 sec
 * total energy  :   -31.5528757 Eh     change       -0.2749492E-03 Eh
   gradient norm :     0.0143910 Eh/α   predicted    -0.4007450E-03 (  45.75%)
   displ. norm   :     0.0955398 α      lambda       -0.5169864E-03
   maximum displ.:     0.0493281 α      in ANC's #6, #2, #4, ...

........................................................................
.............................. CYCLE   18 ..............................
........................................................................

 iter      E             dE          RMSdq      gap      omega  full diag
   1    -32.0696307 -0.320696E+02  0.655E-02    3.69       0.0  T
   2    -32.0696358 -0.510836E-05  0.300E-02    3.68       1.0  T
   3    -32.0696362 -0.389737E-06  0.215E-02    3.68       1.0  T
   4    -32.0696367 -0.485111E-06  0.446E-03    3.68       4.4  T
   5    -32.0696367  0.274419E-08  0.243E-03    3.68       8.1  T
   6    -32.0696367 -0.195582E-07  0.973E-04    3.68      20.1  T
   7    -32.0696367 -0.196157E-08  0.233E-04    3.68      84.3  T
   8    -32.0696367 -0.293113E-09  0.754E-05    3.68     260.2  T
   9    -32.0696367 -0.183462E-10  0.395E-05    3.68     496.0  T
  10    -32.0696367 -0.995470E-11  0.170E-05    3.68    1154.3  T
  11    -32.0696367 -0.125056E-11  0.452E-06    3.68    4339.4  T
  12    -32.0696367 -0.568434E-13  0.134E-06    3.68   14583.8  T
     SCC iter.                  ...        0 min,  0.075 sec
     gradient                   ...        0 min,  0.002 sec
 * total energy  :   -31.5531377 Eh     change       -0.2620244E-03 Eh
   gradient norm :     0.0086394 Eh/α   predicted    -0.2608525E-03 (  -0.45%)
   displ. norm   :     0.2484487 α      lambda       -0.4143365E-03
   maximum displ.:     0.1826919 α      in ANC's #2, #6, #47, ...

........................................................................
.............................. CYCLE   19 ..............................
........................................................................

 iter      E             dE          RMSdq      gap      omega  full diag
   1    -32.0711655 -0.320712E+02  0.802E-02    3.68       0.0  T
   2    -32.0711691 -0.359224E-05  0.478E-02    3.68       1.0  T
   3    -32.0711683  0.812625E-06  0.136E-02    3.68       1.4  T
   4    -32.0711697 -0.136335E-05  0.277E-03    3.68       7.1  T
   5    -32.0711697 -0.440874E-07  0.127E-03    3.68      15.5  T
   6    -32.0711697 -0.707056E-08  0.658E-04    3.68      29.8  T
   7    -32.0711697 -0.292673E-08  0.236E-04    3.68      83.1  T
   8    -32.0711697 -0.942038E-10  0.820E-05    3.68     239.1  T
   9    -32.0711697 -0.999947E-10  0.436E-05    3.68     450.2  T
  10    -32.0711697 -0.158238E-10  0.110E-05    3.68    1777.9  T
  11    -32.0711697 -0.376588E-12  0.540E-06    3.68    3632.9  T
  12    -32.0711697 -0.781597E-13  0.162E-06    3.68   12134.8  T
     SCC iter.                  ...        0 min,  0.075 sec
     gradient                   ...        0 min,  0.002 sec
 * total energy  :   -31.5533557 Eh     change       -0.2179928E-03 Eh
   gradient norm :     0.0084644 Eh/α   predicted    -0.2199595E-03 (   0.90%)
   displ. norm   :     0.4686377 α      lambda       -0.5258564E-03
   maximum displ.:     0.3349694 α      in ANC's #2, #4, #5, ...

........................................................................
.............................. CYCLE   20 ..............................
........................................................................

 iter      E             dE          RMSdq      gap      omega  full diag
   1    -32.0705281 -0.320705E+02  0.137E-01    3.69       0.0  T
   2    -32.0705349 -0.680658E-05  0.827E-02    3.68       1.0  T
   3    -32.0705334  0.152875E-05  0.235E-02    3.69       1.0  T
   4    -32.0705359 -0.253555E-05  0.525E-03    3.68       3.7  T
   5    -32.0705359  0.197971E-07  0.387E-03    3.69       5.1  T
   6    -32.0705360 -0.127507E-06  0.147E-03    3.68      13.3  T
   7    -32.0705360 -0.472657E-08  0.316E-04    3.68      62.1  T
   8    -32.0705360 -0.197531E-09  0.950E-05    3.68     206.4  T
   9    -32.0705360 -0.114944E-09  0.550E-05    3.68     356.5  T
  10    -32.0705360 -0.460432E-11  0.115E-05    3.68    1702.3  T
  11    -32.0705360 -0.902389E-12  0.270E-06    3.68    7270.9  T
  12    -32.0705360  0.355271E-13  0.112E-06    3.68   17573.2  T
     SCC iter.                  ...        0 min,  0.076 sec
     gradient                   ...        0 min,  0.002 sec
 * total energy  :   -31.5537019 Eh     change       -0.3462441E-03 Eh
   gradient norm :     0.0100114 Eh/α   predicted    -0.3206743E-03 (  -7.38%)
   displ. norm   :     0.2449108 α      lambda       -0.3995326E-03
   maximum displ.:     0.1451795 α      in ANC's #2, #4, #25, ...
 * RMSD in coord.:     1.0712365 α      energy gain  -0.9790387E-02 Eh

generating ANC from model Hessian ...
Using Lindh-Hessian (1995)
 Shifting diagonal of input Hessian by   9.224254516316895E-003
 Lowest  eigenvalues of input Hessian
    0.000000    0.000000    0.000000    0.000000    0.000000    0.000000
    0.010000    0.010283    0.010886    0.011262    0.011860    0.012511
    0.015610    0.016856    0.018570    0.018981    0.022134    0.024426
 Highest eigenvalues
    1.365641    1.552475    1.580023    1.883813    1.992066    2.008127
 

........................................................................
.............................. CYCLE   21 ..............................
........................................................................

 iter      E             dE          RMSdq      gap      omega  full diag
   1    -32.0765221 -0.320765E+02  0.826E-02    3.70       0.0  T
   2    -32.0765237 -0.154003E-05  0.485E-02    3.70       1.0  T
   3    -32.0765232  0.489406E-06  0.935E-03    3.70       2.1  T
   4    -32.0765239 -0.764487E-06  0.197E-03    3.70      10.0  T
   5    -32.0765240 -0.192431E-07  0.125E-03    3.70      15.7  T
   6    -32.0765240 -0.932667E-08  0.345E-04    3.70      56.8  T
   7    -32.0765240 -0.954920E-09  0.105E-04    3.70     186.1  T
   8    -32.0765240 -0.991278E-10  0.437E-05    3.70     448.9  T
   9    -32.0765240 -0.938627E-11  0.135E-05    3.70    1455.2  T
  10    -32.0765240 -0.113687E-12  0.526E-06    3.70    3728.0  T
  11    -32.0765240 -0.333955E-12  0.204E-06    3.70    9596.0  T
     SCC iter.                  ...        0 min,  0.075 sec
     gradient                   ...        0 min,  0.002 sec
 * total energy  :   -31.5539321 Eh     change       -0.2301253E-03 Eh
   gradient norm :     0.0106480 Eh/α   predicted     0.0000000E+00 (-100.00%)
   displ. norm   :     0.1005029 α      lambda       -0.3009381E-03
   maximum displ.:     0.0847112 α      in ANC's #3, #5, #6, ...

........................................................................
.............................. CYCLE   22 ..............................
........................................................................

 iter      E             dE          RMSdq      gap      omega  full diag
   1    -32.0752409 -0.320752E+02  0.389E-02    3.69       0.0  T
   2    -32.0752429 -0.202839E-05  0.205E-02    3.69       1.0  T
   3    -32.0752429 -0.193823E-07  0.102E-02    3.69       1.9  T
   4    -32.0752431 -0.184869E-06  0.307E-03    3.69       6.4  T
   5    -32.0752431  0.151613E-07  0.167E-03    3.69      11.7  T
   6    -32.0752431 -0.319317E-07  0.705E-04    3.69      27.8  T
   7    -32.0752431 -0.114185E-08  0.194E-04    3.69     101.3  T
   8    -32.0752431 -0.648868E-10  0.513E-05    3.69     382.5  T
   9    -32.0752431 -0.164775E-10  0.331E-05    3.69     592.0  T
  10    -32.0752431 -0.380140E-11  0.863E-06    3.69    2273.8  T
  11    -32.0752431 -0.270006E-12  0.267E-06    3.69    7352.1  T
     SCC iter.                  ...        0 min,  0.075 sec
     gradient                   ...        0 min,  0.002 sec
 * total energy  :   -31.5541507 Eh     change       -0.2186612E-03 Eh
   gradient norm :     0.0034969 Eh/α   predicted    -0.1522315E-03 ( -30.38%)
   displ. norm   :     0.1588596 α      lambda       -0.2030767E-03
   maximum displ.:     0.1350733 α      in ANC's #3, #5, #9, ...

........................................................................
.............................. CYCLE   23 ..............................
........................................................................

 iter      E             dE          RMSdq      gap      omega  full diag
   1    -32.0740689 -0.320741E+02  0.418E-02    3.68       0.0  T
   2    -32.0740698 -0.886103E-06  0.230E-02    3.68       1.0  T
   3    -32.0740698  0.340862E-07  0.825E-03    3.68       2.4  T
   4    -32.0740699 -0.135604E-06  0.152E-03    3.68      12.9  T
   5    -32.0740699  0.387857E-09  0.804E-04    3.68      24.4  T
   6    -32.0740699 -0.458738E-08  0.341E-04    3.68      57.5  T
   7    -32.0740699 -0.457007E-09  0.106E-04    3.68     185.0  T
   8    -32.0740699 -0.933227E-10  0.370E-05    3.68     529.6  T
   9    -32.0740699 -0.570566E-11  0.217E-05    3.68     902.7  T
  10    -32.0740699 -0.201794E-11  0.682E-06    3.68    2874.1  T
  11    -32.0740699 -0.220268E-12  0.232E-06    3.68    8465.2  T
     SCC iter.                  ...        0 min,  0.075 sec
     gradient                   ...        0 min,  0.002 sec
 * total energy  :   -31.5543050 Eh     change       -0.1543115E-03 Eh
   gradient norm :     0.0031739 Eh/α   predicted    -0.1042532E-03 ( -32.44%)
   displ. norm   :     0.1582630 α      lambda       -0.1390036E-03
   maximum displ.:     0.1299607 α      in ANC's #3, #5, #9, ...

........................................................................
.............................. CYCLE   24 ..............................
........................................................................

 iter      E             dE          RMSdq      gap      omega  full diag
   1    -32.0735434 -0.320735E+02  0.368E-02    3.68       0.0  T
   2    -32.0735436 -0.222622E-06  0.212E-02    3.68       1.0  T
   3    -32.0735436 -0.666716E-08  0.308E-03    3.68       6.4  T
   4    -32.0735436 -0.265127E-07  0.907E-04    3.68      21.6  T
   5    -32.0735436 -0.287069E-08  0.286E-04    3.68      68.6  T
   6    -32.0735436 -0.771934E-10  0.177E-04    3.68     110.8  T
   7    -32.0735436 -0.263249E-09  0.651E-05    3.68     301.2  T
   8    -32.0735436 -0.163141E-10  0.172E-05    3.68    1139.5  T
   9    -32.0735436 -0.959233E-12  0.727E-06    3.68    2695.9  T
  10    -32.0735436 -0.262901E-12  0.380E-06    3.68    5162.0  T
     SCC iter.                  ...        0 min,  0.078 sec
     gradient                   ...        0 min,  0.002 sec
 * total energy  :   -31.5544297 Eh     change       -0.1246825E-03 Eh
   gradient norm :     0.0048530 Eh/α   predicted    -0.7124403E-04 ( -42.86%)
   displ. norm   :     0.1999546 α      lambda       -0.1762220E-03
   maximum displ.:     0.1554990 α      in ANC's #3, #5, #9, ...

........................................................................
.............................. CYCLE   25 ..............................
........................................................................

 iter      E             dE          RMSdq      gap      omega  full diag
   1    -32.0734577 -0.320735E+02  0.456E-02    3.68       0.0  T
   2    -32.0734579 -0.229530E-06  0.272E-02    3.68       1.0  T
   3    -32.0734579  0.599650E-07  0.423E-03    3.68       4.6  T
   4    -32.0734580 -0.111016E-06  0.131E-03    3.68      14.9  T
   5    -32.0734580  0.373905E-08  0.883E-04    3.68      22.2  T
   6    -32.0734580 -0.822057E-08  0.302E-04    3.68      64.9  T
   7    -32.0734580 -0.244633E-09  0.552E-05    3.68     355.0  T
   8    -32.0734580 -0.201226E-10  0.247E-05    3.68     792.9  T
   9    -32.0734580 -0.365219E-11  0.133E-05    3.68    1471.4  T
  10    -32.0734580 -0.831335E-12  0.460E-06    3.68    4260.0  T
  11    -32.0734580 -0.781597E-13  0.140E-06    3.68   14057.4  T
     SCC iter.                  ...        0 min,  0.079 sec
     gradient                   ...        0 min,  0.002 sec
 * total energy  :   -31.5545883 Eh     change       -0.1585909E-03 Eh
   gradient norm :     0.0047706 Eh/α   predicted    -0.9163455E-04 ( -42.22%)
   displ. norm   :     0.2872151 α      lambda       -0.2342458E-03
   maximum displ.:     0.2195047 α      in ANC's #3, #5, #9, ...

........................................................................
.............................. CYCLE   26 ..............................
........................................................................

 iter      E             dE          RMSdq      gap      omega  full diag
   1    -32.0733025 -0.320733E+02  0.649E-02    3.68       0.0  T
   2    -32.0733032 -0.619151E-06  0.391E-02    3.68       1.0  T
   3    -32.0733029  0.279630E-06  0.859E-03    3.68       2.3  T
   4    -32.0733033 -0.420531E-06  0.230E-03    3.68       8.5  T
   5    -32.0733033  0.121805E-07  0.158E-03    3.68      12.4  T
   6    -32.0733033 -0.207978E-07  0.502E-04    3.68      39.1  T
   7    -32.0733033 -0.675961E-09  0.901E-05    3.68     217.7  T
   8    -32.0733033 -0.232916E-10  0.387E-05    3.68     507.4  T
   9    -32.0733033 -0.153406E-10  0.205E-05    3.68     956.7  T
  10    -32.0733033 -0.110845E-11  0.510E-06    3.68    3845.1  T
  11    -32.0733033 -0.781597E-13  0.186E-06    3.68   10518.0  T
     SCC iter.                  ...        0 min,  0.075 sec
     gradient                   ...        0 min,  0.002 sec
 * total energy  :   -31.5547801 Eh     change       -0.1918173E-03 Eh
   gradient norm :     0.0050468 Eh/α   predicted    -0.1267862E-03 ( -33.90%)
   displ. norm   :     0.3355137 α      lambda       -0.2282757E-03
   maximum displ.:     0.2616878 α      in ANC's #3, #5, #2, ...

........................................................................
.............................. CYCLE   27 ..............................
........................................................................

 iter      E             dE          RMSdq      gap      omega  full diag
   1    -32.0730870 -0.320731E+02  0.769E-02    3.68       0.0  T
   2    -32.0730877 -0.745417E-06  0.465E-02    3.68       1.0  T
   3    -32.0730873  0.480010E-06  0.105E-02    3.68       1.9  T
   4    -32.0730879 -0.682294E-06  0.260E-03    3.68       7.6  T
   5    -32.0730879  0.132733E-07  0.171E-03    3.68      11.5  T
   6    -32.0730880 -0.239843E-07  0.523E-04    3.68      37.5  T
   7    -32.0730880 -0.595918E-09  0.939E-05    3.68     209.0  T
   8    -32.0730880 -0.532907E-10  0.431E-05    3.68     455.2  T
   9    -32.0730880 -0.195328E-10  0.206E-05    3.68     952.5  T
  10    -32.0730880 -0.994760E-12  0.548E-06    3.68    3576.8  T
  11    -32.0730880 -0.177636E-12  0.210E-06    3.68    9339.7  T
     SCC iter.                  ...        0 min,  0.075 sec
     gradient                   ...        0 min,  0.002 sec
 * total energy  :   -31.5549458 Eh     change       -0.1656759E-03 Eh
   gradient norm :     0.0064829 Eh/α   predicted    -0.1269864E-03 ( -23.35%)
   displ. norm   :     0.2795255 α      lambda       -0.1925882E-03
   maximum displ.:     0.2239582 α      in ANC's #3, #10, #2, ...

........................................................................
.............................. CYCLE   28 ..............................
........................................................................

 iter      E             dE          RMSdq      gap      omega  full diag
   1    -32.0745042 -0.320745E+02  0.686E-02    3.69       0.0  T
   2    -32.0745048 -0.585149E-06  0.411E-02    3.69       1.0  T
   3    -32.0745046  0.235536E-06  0.612E-03    3.69       3.2  T
   4    -32.0745049 -0.358115E-06  0.139E-03    3.69      14.1  T
   5    -32.0745049 -0.638403E-08  0.800E-04    3.69      24.5  T
   6    -32.0745049 -0.472958E-08  0.352E-04    3.69      55.8  T
   7    -32.0745049 -0.455422E-09  0.101E-04    3.69     195.0  T
   8    -32.0745049 -0.136069E-10  0.387E-05    3.69     507.4  T
   9    -32.0745049 -0.284146E-10  0.187E-05    3.69    1048.0  T
  10    -32.0745049 -0.181188E-11  0.295E-06    3.69    6648.6  T
  11    -32.0745049 -0.639488E-13  0.170E-06    3.69   11556.1  T
     SCC iter.                  ...        0 min,  0.075 sec
     gradient                   ...        0 min,  0.002 sec
 * total energy  :   -31.5550860 Eh     change       -0.1402048E-03 Eh
   gradient norm :     0.0052166 Eh/α   predicted    -0.1038283E-03 ( -25.95%)
   displ. norm   :     0.2574374 α      lambda       -0.1305021E-03
   maximum displ.:     0.2017773 α      in ANC's #3, #1, #10, ...

........................................................................
.............................. CYCLE   29 ..............................
........................................................................

 iter      E             dE          RMSdq      gap      omega  full diag
   1    -32.0752252 -0.320752E+02  0.702E-02    3.69       0.0  T
   2    -32.0752254 -0.271822E-06  0.412E-02    3.69       1.0  T
   3    -32.0752254  0.216820E-07  0.296E-03    3.69       6.6  T
   4    -32.0752255 -0.973463E-07  0.129E-03    3.69      15.2  T
   5    -32.0752255 -0.157544E-07  0.525E-04    3.69      37.4  T
   6    -32.0752255 -0.732264E-09  0.190E-04    3.69     103.0  T
   7    -32.0752255 -0.655831E-11  0.742E-05    3.69     264.2  T
   8    -32.0752255 -0.645315E-10  0.219E-05    3.69     894.2  T
   9    -32.0752255 -0.224532E-11  0.119E-05    3.69    1646.8  T
  10    -32.0752255 -0.137845E-11  0.255E-06    3.69    7705.2  T
  11    -32.0752255 -0.355271E-13  0.142E-06    3.69   13781.9  T
     SCC iter.                  ...        0 min,  0.075 sec
     gradient                   ...        0 min,  0.002 sec
 * total energy  :   -31.5551825 Eh     change       -0.9648460E-04 Eh
   gradient norm :     0.0036797 Eh/α   predicted    -0.6957586E-04 ( -27.89%)
   displ. norm   :     0.2357038 α      lambda       -0.8360454E-04
   maximum displ.:     0.1821601 α      in ANC's #3, #1, #2, ...

........................................................................
.............................. CYCLE   30 ..............................
........................................................................

 iter      E             dE          RMSdq      gap      omega  full diag
   1    -32.0758274 -0.320758E+02  0.677E-02    3.69       0.0  T
   2    -32.0758278 -0.367116E-06  0.393E-02    3.69       1.0  T
   3    -32.0758278 -0.174548E-07  0.315E-03    3.69       6.2  T
   4    -32.0758278 -0.357040E-07  0.158E-03    3.69      12.4  T
   5    -32.0758279 -0.317375E-07  0.541E-04    3.69      36.2  T
   6    -32.0758279 -0.100101E-08  0.199E-04    3.69      98.6  T
   7    -32.0758279 -0.121076E-10  0.507E-05    3.69     386.9  T
   8    -32.0758279 -0.249614E-10  0.211E-05    3.69     928.4  T
   9    -32.0758279 -0.262190E-11  0.845E-06    3.69    2321.9  T
  10    -32.0758279 -0.980549E-12  0.236E-06    3.69    8320.7  T
     SCC iter.                  ...        0 min,  0.075 sec
     gradient                   ...        0 min,  0.002 sec
 * total energy  :   -31.5552427 Eh     change       -0.6016569E-04 Eh
   gradient norm :     0.0024626 Eh/α   predicted    -0.4413930E-04 ( -26.64%)
   displ. norm   :     0.2399377 α      lambda       -0.4869860E-04
   maximum displ.:     0.1798668 α      in ANC's #3, #1, #2, ...

........................................................................
.............................. CYCLE   31 ..............................
........................................................................

 iter      E             dE          RMSdq      gap      omega  full diag
   1    -32.0748039 -0.320748E+02  0.679E-02    3.69       0.0  T
   2    -32.0748044 -0.494137E-06  0.396E-02    3.69       1.0  T
   3    -32.0748044 -0.561914E-08  0.409E-03    3.69       4.8  T
   4    -32.0748045 -0.540393E-07  0.180E-03    3.69      10.9  T
   5    -32.0748045 -0.288457E-07  0.849E-04    3.69      23.1  T
   6    -32.0748045 -0.575857E-08  0.326E-04    3.69      60.1  T
   7    -32.0748045 -0.186127E-09  0.707E-05    3.69     277.3  T
   8    -32.0748045 -0.365503E-10  0.266E-05    3.69     736.2  T
   9    -32.0748045 -0.787992E-11  0.110E-05    3.69    1783.1  T
  10    -32.0748045 -0.298428E-12  0.447E-06    3.69    4389.2  T
  11    -32.0748045 -0.106581E-12  0.126E-06    3.69   15556.0  T
     SCC iter.                  ...        0 min,  0.077 sec
     gradient                   ...        0 min,  0.002 sec
 * total energy  :   -31.5552712 Eh     change       -0.2857677E-04 Eh
   gradient norm :     0.0026040 Eh/α   predicted    -0.2575197E-04 (  -9.88%)
   displ. norm   :     0.2080720 α      lambda       -0.8336275E-04
   maximum displ.:     0.1320239 α      in ANC's #3, #1, #2, ...

........................................................................
.............................. CYCLE   32 ..............................
........................................................................

 iter      E             dE          RMSdq      gap      omega  full diag
   1    -32.0784523 -0.320785E+02  0.777E-02    3.69       0.0  T
   2    -32.0784540 -0.174392E-05  0.428E-02    3.68       1.0  T
   3    -32.0784541 -0.405091E-07  0.955E-03    3.68       2.1  T
   4    -32.0784542 -0.138542E-06  0.190E-03    3.68      10.3  T
   5    -32.0784542 -0.577443E-08  0.111E-03    3.68      17.7  T
   6    -32.0784542 -0.594922E-08  0.436E-04    3.68      45.0  T
   7    -32.0784542 -0.681887E-09  0.159E-04    3.68     123.4  T
   8    -32.0784542 -0.880434E-10  0.377E-05    3.68     519.8  T
   9    -32.0784542 -0.245848E-11  0.194E-05    3.68    1011.6  T
  10    -32.0784542 -0.420641E-11  0.346E-06    3.68    5674.9  T
  11    -32.0784542 -0.106581E-12  0.221E-06    3.68    8882.1  T
     SCC iter.                  ...        0 min,  0.076 sec
     gradient                   ...        0 min,  0.002 sec
 * total energy  :   -31.5552774 Eh     change       -0.6186407E-05 Eh
   gradient norm :     0.0048207 Eh/α   predicted    -0.4349049E-04 ( 603.00%)
   displ. norm   :     0.1029007 α      lambda       -0.5995687E-04
   maximum displ.:     0.0744594 α      in ANC's #3, #1, #2, ...

........................................................................
.............................. CYCLE   33 ..............................
........................................................................

 iter      E             dE          RMSdq      gap      omega  full diag
   1    -32.0763336 -0.320763E+02  0.315E-02    3.69       0.0  T
   2    -32.0763343 -0.771188E-06  0.183E-02    3.69       1.1  T
   3    -32.0763343  0.872846E-08  0.660E-03    3.69       3.0  T
   4    -32.0763344 -0.833263E-07  0.179E-03    3.69      11.0  T
   5    -32.0763344  0.649288E-08  0.129E-03    3.69      15.2  T
   6    -32.0763344 -0.122360E-07  0.447E-04    3.69      43.8  T
   7    -32.0763344 -0.668990E-09  0.131E-04    3.69     149.5  T
   8    -32.0763344 -0.544986E-11  0.276E-05    3.69     710.6  T
   9    -32.0763344 -0.380851E-11  0.160E-05    3.69    1223.3  T
  10    -32.0763344 -0.164846E-11  0.599E-06    3.69    3276.1  T
  11    -32.0763344 -0.106581E-12  0.173E-06    3.69   11305.2  T
     SCC iter.                  ...        0 min,  0.075 sec
     gradient                   ...        0 min,  0.002 sec
 * total energy  :   -31.5553092 Eh     change       -0.3179343E-04 Eh
   gradient norm :     0.0028061 Eh/α   predicted    -0.3029808E-04 (  -4.70%)
   displ. norm   :     0.0276328 α      lambda       -0.2370071E-04
   maximum displ.:     0.0192974 α      in ANC's #3, #10, #1, ...

........................................................................
.............................. CYCLE   34 ..............................
........................................................................

 iter      E             dE          RMSdq      gap      omega  full diag
   1    -32.0758485 -0.320758E+02  0.130E-02    3.69       0.0  T
   2    -32.0758487 -0.211491E-06  0.692E-03    3.69       2.8  T
   3    -32.0758487 -0.887144E-08  0.224E-03    3.69       8.8  T
   4    -32.0758487 -0.557401E-08  0.633E-04    3.69      31.0  T
   5    -32.0758487 -0.159690E-08  0.316E-04    3.69      62.1  T
   6    -32.0758487 -0.146692E-09  0.136E-04    3.69     144.6  T
   7    -32.0758487 -0.253820E-09  0.565E-05    3.69     347.3  T
   8    -32.0758487 -0.723333E-11  0.250E-05    3.69     783.9  T
   9    -32.0758487 -0.895284E-12  0.107E-05    3.69    1835.3  T
  10    -32.0758487 -0.184741E-12  0.243E-06    3.69    8071.8  T
  11    -32.0758487 -0.355271E-13  0.874E-07    3.69   22445.2  T
     SCC iter.                  ...        0 min,  0.075 sec
     gradient                   ...        0 min,  0.002 sec
 * total energy  :   -31.5553238 Eh     change       -0.1455357E-04 Eh
   gradient norm :     0.0012644 Eh/α   predicted    -0.1187220E-04 ( -18.42%)
   displ. norm   :     0.1031437 α      lambda       -0.3116569E-04
   maximum displ.:     0.0575711 α      in ANC's #10, #1, #2, ...

........................................................................
.............................. CYCLE   35 ..............................
........................................................................

 iter      E             dE          RMSdq      gap      omega  full diag
   1    -32.0761785 -0.320762E+02  0.280E-02    3.69       0.0  T
   2    -32.0761787 -0.113913E-06  0.167E-02    3.69       1.2  T
   3    -32.0761786  0.475729E-07  0.306E-03    3.69       6.4  T
   4    -32.0761787 -0.740776E-07  0.867E-04    3.69      22.6  T
   5    -32.0761787 -0.903491E-09  0.405E-04    3.69      48.4  T
   6    -32.0761787 -0.315135E-08  0.163E-04    3.69     120.6  T
   7    -32.0761787 -0.954685E-10  0.355E-05    3.69     552.3  T
   8    -32.0761787 -0.225242E-11  0.125E-05    3.69    1565.5  T
   9    -32.0761787 -0.177636E-11  0.492E-06    3.69    3982.7  T
  10    -32.0761787 -0.277112E-12  0.173E-06    3.69   11315.9  T
     SCC iter.                  ...        0 min,  0.075 sec
     gradient                   ...        0 min,  0.002 sec
 * total energy  :   -31.5553602 Eh     change       -0.3646834E-04 Eh
   gradient norm :     0.0020473 Eh/α   predicted    -0.1566830E-04 ( -57.04%)
   displ. norm   :     0.2077149 α      lambda       -0.6473212E-04
   maximum displ.:     0.1394769 α      in ANC's #1, #2, #10, ...

........................................................................
.............................. CYCLE   36 ..............................
........................................................................

 iter      E             dE          RMSdq      gap      omega  full diag
   1    -32.0758247 -0.320758E+02  0.647E-02    3.69       0.0  T
   2    -32.0758251 -0.391143E-06  0.382E-02    3.69       1.0  T
   3    -32.0758250  0.117021E-06  0.543E-03    3.69       3.6  T
   4    -32.0758252 -0.210568E-06  0.146E-03    3.69      13.4  T
   5    -32.0758252 -0.405964E-08  0.762E-04    3.69      25.7  T
   6    -32.0758252 -0.775371E-08  0.361E-04    3.69      54.3  T
   7    -32.0758252 -0.280068E-09  0.572E-05    3.69     343.1  T
   8    -32.0758252 -0.420854E-10  0.214E-05    3.69     917.4  T
   9    -32.0758252 -0.502354E-11  0.101E-05    3.69    1944.4  T
  10    -32.0758252 -0.184741E-12  0.263E-06    3.69    7469.1  T
  11    -32.0758252 -0.568434E-13  0.895E-07    3.69   21915.1  T
     SCC iter.                  ...        0 min,  0.075 sec
     gradient                   ...        0 min,  0.002 sec
 * total energy  :   -31.5554109 Eh     change       -0.5062220E-04 Eh
   gradient norm :     0.0025027 Eh/α   predicted    -0.3376423E-04 ( -33.30%)
   displ. norm   :     0.2853249 α      lambda       -0.6650907E-04
   maximum displ.:     0.1954353 α      in ANC's #1, #2, #10, ...

........................................................................
.............................. CYCLE   37 ..............................
........................................................................

 iter      E             dE          RMSdq      gap      omega  full diag
   1    -32.0751377 -0.320751E+02  0.916E-02    3.68       0.0  T
   2    -32.0751385 -0.724675E-06  0.533E-02    3.68       1.0  T
   3    -32.0751384  0.668767E-07  0.495E-03    3.68       4.0  T
   4    -32.0751386 -0.180345E-06  0.227E-03    3.68       8.7  T
   5    -32.0751386 -0.608177E-07  0.780E-04    3.68      25.2  T
   6    -32.0751386 -0.434689E-08  0.373E-04    3.68      52.5  T
   7    -32.0751386 -0.206512E-09  0.887E-05    3.68     221.0  T
   8    -32.0751386 -0.131571E-09  0.323E-05    3.68     606.8  T
   9    -32.0751386 -0.110703E-10  0.113E-05    3.68    1740.9  T
  10    -32.0751386 -0.511591E-12  0.574E-06    3.68    3416.5  T
  11    -32.0751386 -0.156319E-12  0.169E-06    3.68   11619.6  T
     SCC iter.                  ...        0 min,  0.077 sec
     gradient                   ...        0 min,  0.003 sec
 * total energy  :   -31.5554524 Eh     change       -0.4149692E-04 Eh
   gradient norm :     0.0033872 Eh/α   predicted    -0.3596744E-04 ( -13.33%)
   displ. norm   :     0.1409236 α      lambda       -0.3222334E-04
   maximum displ.:     0.0981033 α      in ANC's #1, #2, #6, ...

........................................................................
.............................. CYCLE   38 ..............................
........................................................................

 iter      E             dE          RMSdq      gap      omega  full diag
   1    -32.0757289 -0.320757E+02  0.460E-02    3.68       0.0  T
   2    -32.0757291 -0.279286E-06  0.268E-02    3.68       1.0  T
   3    -32.0757291  0.465914E-08  0.334E-03    3.68       5.9  T
   4    -32.0757292 -0.488756E-07  0.108E-03    3.68      18.2  T
   5    -32.0757292 -0.571271E-08  0.501E-04    3.68      39.1  T
   6    -32.0757292 -0.201908E-08  0.266E-04    3.68      73.8  T
   7    -32.0757292 -0.147374E-09  0.611E-05    3.68     320.9  T
   8    -32.0757292 -0.219700E-10  0.180E-05    3.68    1091.6  T
   9    -32.0757292 -0.319744E-11  0.102E-05    3.68    1914.0  T
  10    -32.0757292 -0.525802E-12  0.175E-06    3.68   11196.6  T
  11    -32.0757292 -0.781597E-13  0.890E-07    3.68   22037.9  T
     SCC iter.                  ...        0 min,  0.078 sec
     gradient                   ...        0 min,  0.002 sec
 * total energy  :   -31.5554742 Eh     change       -0.2185988E-04 Eh
   gradient norm :     0.0018334 Eh/α   predicted    -0.1643532E-04 ( -24.82%)
   displ. norm   :     0.2416978 α      lambda       -0.2154321E-04
   maximum displ.:     0.1608319 α      in ANC's #1, #3, #2, ...

........................................................................
.............................. CYCLE   39 ..............................
........................................................................

 iter      E             dE          RMSdq      gap      omega  full diag
   1    -32.0755984 -0.320756E+02  0.821E-02    3.69       0.0  T
   2    -32.0755993 -0.912196E-06  0.479E-02    3.68       1.0  T
   3    -32.0755993  0.224115E-07  0.612E-03    3.68       3.2  T
   4    -32.0755994 -0.151840E-06  0.205E-03    3.68       9.6  T
   5    -32.0755995 -0.849263E-08  0.133E-03    3.68      14.7  T
   6    -32.0755995 -0.176801E-07  0.512E-04    3.68      38.3  T
   7    -32.0755995 -0.307708E-09  0.100E-04    3.68     195.6  T
   8    -32.0755995 -0.105700E-09  0.531E-05    3.68     369.4  T
   9    -32.0755995 -0.635225E-11  0.295E-05    3.68     665.5  T
  10    -32.0755995 -0.127187E-11  0.306E-06    3.68    6403.2  T
  11    -32.0755995 -0.355271E-13  0.126E-06    3.68   15517.0  T
     SCC iter.                  ...        0 min,  0.081 sec
     gradient                   ...        0 min,  0.002 sec
 * total energy  :   -31.5554828 Eh     change       -0.8553510E-05 Eh
   gradient norm :     0.0022769 Eh/α   predicted    -0.1105742E-04 (  29.27%)
   displ. norm   :     0.0426262 α      lambda       -0.1714305E-04
   maximum displ.:     0.0335771 α      in ANC's #3, #5, #2, ...

........................................................................
.............................. CYCLE   40 ..............................
........................................................................

 iter      E             dE          RMSdq      gap      omega  full diag
   1    -32.0769378 -0.320769E+02  0.125E-02    3.69       0.0  T
   2    -32.0769380 -0.225527E-06  0.745E-03    3.69       2.6  T
   3    -32.0769380 -0.315736E-08  0.295E-03    3.69       6.7  T
   4    -32.0769380 -0.172361E-07  0.881E-04    3.69      22.3  T
   5    -32.0769380  0.803198E-09  0.603E-04    3.69      32.5  T
   6    -32.0769380 -0.168243E-08  0.186E-04    3.69     105.6  T
   7    -32.0769380 -0.195769E-09  0.414E-05    3.69     473.4  T
   8    -32.0769380 -0.562750E-11  0.223E-05    3.69     878.1  T
   9    -32.0769380 -0.120792E-11  0.821E-06    3.69    2388.6  T
  10    -32.0769380 -0.106581E-12  0.251E-06    3.69    7811.2  T
     SCC iter.                  ...        0 min,  0.079 sec
     gradient                   ...        0 min,  0.002 sec
 * total energy  :   -31.5554894 Eh     change       -0.6620066E-05 Eh
   gradient norm :     0.0015683 Eh/α   predicted    -0.8589720E-05 (  29.75%)
   displ. norm   :     0.0334527 α      lambda       -0.7959927E-05
   maximum displ.:     0.0228327 α      in ANC's #1, #3, #2, ...

........................................................................
.............................. CYCLE   41 ..............................
........................................................................

 iter      E             dE          RMSdq      gap      omega  full diag
   1    -32.0757353 -0.320757E+02  0.137E-02    3.68       0.0  T
   2    -32.0757354 -0.141196E-06  0.782E-03    3.69       2.5  T
   3    -32.0757354  0.150490E-07  0.295E-03    3.68       6.6  T
   4    -32.0757355 -0.326694E-07  0.582E-04    3.68      33.7  T
   5    -32.0757355 -0.568861E-09  0.388E-04    3.68      50.5  T
   6    -32.0757355 -0.123714E-08  0.165E-04    3.68     118.8  T
   7    -32.0757355 -0.115264E-09  0.548E-05    3.68     357.8  T
   8    -32.0757355  0.333955E-12  0.156E-05    3.68    1260.7  T
   9    -32.0757355 -0.222400E-11  0.694E-06    3.68    2825.6  T
  10    -32.0757355 -0.113687E-12  0.227E-06    3.68    8631.4  T
     SCC iter.                  ...        0 min,  0.080 sec
     gradient                   ...        0 min,  0.002 sec
 * total energy  :   -31.5554948 Eh     change       -0.5429477E-05 Eh
   gradient norm :     0.0009766 Eh/α   predicted    -0.3982579E-05 ( -26.65%)
   displ. norm   :     0.0458741 α      lambda       -0.4999790E-05
   maximum displ.:     0.0282988 α      in ANC's #10, #3, #6, ...

........................................................................
.............................. CYCLE   42 ..............................
........................................................................

 iter      E             dE          RMSdq      gap      omega  full diag
   1    -32.0760192 -0.320760E+02  0.103E-02    3.69       0.0  T
   2    -32.0760192 -0.112278E-07  0.613E-03    3.69       3.2  T
   3    -32.0760192  0.404921E-08  0.745E-04    3.69      26.3  T
   4    -32.0760192 -0.597803E-08  0.312E-04    3.69      62.9  T
   5    -32.0760192 -0.134401E-08  0.101E-04    3.69     194.8  T
   6    -32.0760192 -0.948788E-10  0.443E-05    3.69     442.3  T
   7    -32.0760192 -0.785150E-11  0.159E-05    3.69    1234.6  T
   8    -32.0760192 -0.123634E-11  0.527E-06    3.69    3719.3  T
   9    -32.0760192 -0.177636E-12  0.257E-06    3.69    7642.4  T
     SCC iter.                  ...        0 min,  0.078 sec
     gradient                   ...        0 min,  0.002 sec
 * total energy  :   -31.5555002 Eh     change       -0.5359870E-05 Eh
   gradient norm :     0.0006299 Eh/α   predicted    -0.2504650E-05 ( -53.27%)
   displ. norm   :     0.0673886 α      lambda       -0.6277475E-05
   maximum displ.:     0.0480052 α      in ANC's #1, #10, #9, ...
 * RMSD in coord.:     0.5987921 α      energy gain  -0.1798240E-02 Eh

generating ANC from model Hessian ...
Using Lindh-Hessian (1995)
 Shifting diagonal of input Hessian by   9.198874716801430E-003
 Lowest  eigenvalues of input Hessian
    0.000000    0.000000    0.000000    0.000000    0.000000    0.000000
    0.010000    0.010229    0.010789    0.011030    0.011724    0.012744
    0.015299    0.016741    0.018536    0.018810    0.022211    0.024254
 Highest eigenvalues
    1.364075    1.551551    1.577231    1.883238    1.988724    2.005708
 

........................................................................
.............................. CYCLE   43 ..............................
........................................................................

 iter      E             dE          RMSdq      gap      omega  full diag
   1    -32.0764721 -0.320765E+02  0.223E-02    3.69       0.0  T
   2    -32.0764722 -0.245691E-07  0.131E-02    3.69       1.5  T
   3    -32.0764722 -0.248247E-08  0.960E-04    3.69      20.4  T
   4    -32.0764722 -0.698680E-08  0.349E-04    3.69      56.2  T
   5    -32.0764722 -0.345395E-10  0.188E-04    3.69     104.2  T
   6    -32.0764722 -0.322601E-09  0.604E-05    3.69     324.8  T
   7    -32.0764722 -0.752465E-11  0.171E-05    3.69    1147.4  T
   8    -32.0764722 -0.286349E-11  0.706E-06    3.69    2779.3  T
   9    -32.0764722 -0.689226E-12  0.230E-06    3.69    8508.6  T
     SCC iter.                  ...        0 min,  0.079 sec
     gradient                   ...        0 min,  0.002 sec
 * total energy  :   -31.5555064 Eh     change       -0.6196501E-05 Eh
   gradient norm :     0.0008828 Eh/α   predicted     0.0000000E+00 (-100.00%)
   displ. norm   :     0.0217177 α      lambda       -0.3977367E-05
   maximum displ.:     0.0149793 α      in ANC's #1, #3, #5, ...

........................................................................
.............................. CYCLE   44 ..............................
........................................................................

 iter      E             dE          RMSdq      gap      omega  full diag
   1    -32.0764041 -0.320764E+02  0.782E-03    3.69       0.0  T
   2    -32.0764041 -0.325704E-07  0.449E-03    3.69       4.4  T
   3    -32.0764041  0.163358E-08  0.141E-03    3.69      14.0  T
   4    -32.0764041 -0.478693E-08  0.373E-04    3.69      52.5  T
   5    -32.0764041 -0.356238E-09  0.229E-04    3.69      85.5  T
   6    -32.0764041 -0.809401E-09  0.103E-04    3.69     189.6  T
   7    -32.0764041 -0.200657E-10  0.247E-05    3.69     793.4  T
   8    -32.0764041 -0.511591E-12  0.634E-06    3.69    3094.0  T
   9    -32.0764041 -0.106581E-12  0.348E-06    3.69    5629.2  T
     SCC iter.                  ...        0 min,  0.081 sec
     gradient                   ...        0 min,  0.002 sec
 * total energy  :   -31.5555104 Eh     change       -0.4072143E-05 Eh
   gradient norm :     0.0002603 Eh/α   predicted    -0.2000169E-05 ( -50.88%)
   displ. norm   :     0.0372568 α      lambda       -0.3502446E-05
   maximum displ.:     0.0255023 α      in ANC's #1, #3, #5, ...

........................................................................
.............................. CYCLE   45 ..............................
........................................................................

 iter      E             dE          RMSdq      gap      omega  full diag
   1    -32.0763764 -0.320764E+02  0.104E-02    3.69       0.0  T
   2    -32.0763764 -0.172443E-07  0.610E-03    3.69       3.2  T
   3    -32.0763764  0.281287E-08  0.893E-04    3.69      22.0  T
   4    -32.0763764 -0.508435E-08  0.284E-04    3.69      69.1  T
   5    -32.0763764 -0.655987E-09  0.151E-04    3.69     129.5  T
   6    -32.0763764 -0.339696E-09  0.622E-05    3.69     315.0  T
   7    -32.0763764 -0.119584E-10  0.182E-05    3.69    1080.2  T
   8    -32.0763764 -0.112976E-11  0.531E-06    3.69    3692.6  T
   9    -32.0763764 -0.149214E-12  0.246E-06    3.69    7986.5  T
     SCC iter.                  ...        0 min,  0.076 sec
     gradient                   ...        0 min,  0.002 sec
 * total energy  :   -31.5555150 Eh     change       -0.4581812E-05 Eh
   gradient norm :     0.0006525 Eh/α   predicted    -0.1752431E-05 ( -61.75%)
   displ. norm   :     0.0658868 α      lambda       -0.5644878E-05
   maximum displ.:     0.0448268 α      in ANC's #1, #3, #5, ...

........................................................................
.............................. CYCLE   46 ..............................
........................................................................

 iter      E             dE          RMSdq      gap      omega  full diag
   1    -32.0763211 -0.320763E+02  0.178E-02    3.69       0.0  T
   2    -32.0763211 -0.222983E-07  0.105E-02    3.69       1.9  T
   3    -32.0763211 -0.119032E-08  0.869E-04    3.69      22.6  T
   4    -32.0763211 -0.459524E-08  0.301E-04    3.69      65.1  T
   5    -32.0763211 -0.402878E-09  0.164E-04    3.69     119.9  T
   6    -32.0763211 -0.267683E-09  0.783E-05    3.69     250.4  T
   7    -32.0763211 -0.199663E-10  0.192E-05    3.69    1019.6  T
   8    -32.0763211 -0.108713E-11  0.678E-06    3.69    2893.4  T
   9    -32.0763211 -0.333955E-12  0.267E-06    3.69    7358.8  T
     SCC iter.                  ...        0 min,  0.076 sec
     gradient                   ...        0 min,  0.002 sec
 * total energy  :   -31.5555227 Eh     change       -0.7663158E-05 Eh
[...]
         :: add. restraining           0.000000000000 Eh    ::
         :: total charge               0.000000000000 e     ::
         :::::::::::::::::::::::::::::::::::::::::::::::::::::

           ------------------------------------------------- 
          |                Numerical Hessian                |
           ------------------------------------------------- 
step length          :   0.00500
SCC accuracy         :   0.30000
Hessian scale factor :   1.00000
frozen atoms in %    :   0.00000    0
RMS gradient         :   0.00002
estimated CPU  time      1.12 min
estimated wall time      0.13 min

writing file <hessian>.

 projected vibrational frequencies (cm⁻¹)
eigval :       -0.00    -0.00     0.00     0.00     0.00     0.00
eigval :       23.12    54.02    72.01    94.30   143.68   167.74
eigval :      203.27   215.82   224.36   265.66   314.24   328.74
eigval :      363.20   425.52   450.69   586.05   655.62   660.24
eigval :      685.96   701.93   739.17   754.46   778.03   874.78
eigval :      898.90   926.61   932.73   968.74   974.90   997.71
eigval :     1013.15  1016.95  1071.42  1076.74  1083.10  1117.53
eigval :     1121.37  1181.65  1199.07  1220.40  1225.56  1250.37
eigval :     1255.57  1278.13  1315.60  1409.47  1411.33  1423.39
eigval :     1446.23  1451.17  1459.00  1497.31  1498.50  1501.87
eigval :     1502.28  1579.88  1589.65  2929.07  2934.46  2946.67
eigval :     2949.89  3013.21  3014.11  3020.18  3026.85  3029.55
eigval :     3033.81  3063.41  3063.98  3072.11  3077.52  3087.88
           -------------------------------------------------
          |                Property Printout                |
           -------------------------------------------------

    * Orbital Energies and Occupations

         #    Occupation            Energy/Eh            Energy/eV
      -------------------------------------------------------------
         1        2.0000           -0.6578755             -17.9017
       ...           ...                  ...                  ...
        18        2.0000           -0.4773766             -12.9901
        19        2.0000           -0.4745204             -12.9124
        20        2.0000           -0.4630114             -12.5992
        21        2.0000           -0.4620955             -12.5743
        22        2.0000           -0.4534508             -12.3390
        23        2.0000           -0.4450088             -12.1093
        24        2.0000           -0.4376433             -11.9089
        25        2.0000           -0.4231606             -11.5148
        26        2.0000           -0.4184203             -11.3858
        27        2.0000           -0.4046597             -11.0113
        28        2.0000           -0.4043531             -11.0030
        29        2.0000           -0.3967891             -10.7972
        30        2.0000           -0.3669687              -9.9857 (HOMO)
        31                         -0.2331745              -6.3450 (LUMO)
        32                         -0.2229422              -6.0666
        33                         -0.1564250              -4.2565
        34                         -0.1498883              -4.0787
        35                         -0.0930365              -2.5317
        36                          0.0051001               0.1388
        37                          0.0554760               1.5096
        38                          0.0886283               2.4117
        39                          0.0952536               2.5920
        40                          0.1354870               3.6868
        41                          0.1378482               3.7510
       ...                                ...                  ...
        64                          0.7864012              21.3991
      -------------------------------------------------------------
                  HL-Gap            0.1337942 Eh            3.6407 eV
             Fermi-level           -0.3000716 Eh           -8.1654 eV

     #   Z          covCN         q      C6AA      α(0)
     1  15 P        3.045    -0.116   165.504    23.111
     2   6 C        3.748    -0.045    21.445     6.605
     3   1 H        0.926     0.039     2.463     2.454
     4   1 H        0.925     0.042     2.427     2.436
     5   6 C        3.819    -0.096    22.314     6.723
     6   1 H        0.925     0.041     2.436     2.441
     7   1 H        0.925     0.036     2.507     2.476
     8   1 H        0.925     0.032     2.556     2.500
     9   6 C        2.916     0.008    27.844     8.653
    10   6 C        3.017    -0.030    28.737     8.793
    11   6 C        2.960    -0.028    28.709     8.788
    12   6 C        2.918    -0.030    28.740     8.791
    13   6 C        2.919    -0.031    28.781     8.798
    14   6 C        2.920    -0.029    28.732     8.790
    15   1 H        0.925     0.040     2.455     2.450
    16   1 H        0.926     0.032     2.555     2.500
    17   1 H        0.926     0.030     2.581     2.512
    18   1 H        0.926     0.028     2.612     2.527
    19   1 H        0.926     0.029     2.596     2.520
    20   6 C        3.748    -0.046    21.471     6.609
    21   1 H        0.926     0.038     2.469     2.457
    22   1 H        0.925     0.043     2.413     2.429
    23   6 C        3.811    -0.098    22.356     6.730
    24   1 H        0.925     0.042     2.423     2.434
    25   1 H        0.925     0.037     2.492     2.469
    26   1 H        0.925     0.034     2.537     2.491

 Mol. C6AA /au·bohr⁶  :       7598.568855
 Mol. C8AA /au·bohr⁸  :     202572.672736
 Mol. α(0) /au        :        139.488458


Wiberg/Mayer (AO) data.
largest (>0.10) Wiberg bond orders for each atom

 ---------------------------------------------------------------------------
     #   Z sym  total        # sym  WBO       # sym  WBO       # sym  WBO
 ---------------------------------------------------------------------------
     1  15 P    3.346 --     2 C    1.028    20 C    1.021     9 C    1.006
     2   6 C    3.994 --     1 P    1.028     5 C    1.016     3 H    0.957
                             4 H    0.950
     3   1 H    0.998 --     2 C    0.957
     4   1 H    0.998 --     2 C    0.950
     5   6 C    3.997 --     2 C    1.016     8 H    0.985     6 H    0.984
                             7 H    0.984
     6   1 H    0.998 --     5 C    0.984
     7   1 H    0.999 --     5 C    0.984
     8   1 H    0.999 --     5 C    0.985
     9   6 C    3.983 --    10 C    1.408    11 C    1.400     1 P    1.006
                            14 C    0.108
    10   6 C    3.991 --    12 C    1.443     9 C    1.408    15 H    0.964
                            13 C    0.108
    11   6 C    3.992 --    13 C    1.449     9 C    1.400    16 H    0.961
                            12 C    0.110
    12   6 C    3.992 --    10 C    1.443    14 C    1.440    17 H    0.970
                            11 C    0.110
    13   6 C    3.993 --    11 C    1.449    14 C    1.433    18 H    0.970
                            10 C    0.108
    14   6 C    3.990 --    12 C    1.440    13 C    1.433    19 H    0.971
                             9 C    0.108
    15   1 H    0.998 --    10 C    0.964
    16   1 H    0.999 --    11 C    0.961
    17   1 H    0.999 --    12 C    0.970
    18   1 H    0.999 --    13 C    0.970
    19   1 H    0.998 --    14 C    0.971
    20   6 C    3.995 --     1 P    1.021    23 C    1.016    21 H    0.959
                            22 H    0.951
    21   1 H    0.998 --    20 C    0.959
    22   1 H    0.998 --    20 C    0.951
    23   6 C    3.996 --    20 C    1.016    25 H    0.985    24 H    0.985
                            26 H    0.984
    24   1 H    0.998 --    23 C    0.985
    25   1 H    0.999 --    23 C    0.985
    26   1 H    0.998 --    23 C    0.984
 ---------------------------------------------------------------------------

Topologies differ in total number of bonds
Writing topology from bond orders to xtbtopo.mol

molecular dipole:
                 x           y           z       tot (Debye)
 q only:       -0.135       0.156       0.153
   full:       -0.485       0.341       0.253       1.639
molecular quadrupole (traceless):
                xx          xy          yy          xz          yz          zz
 q only:       -0.259       0.889       1.357       1.978      -0.367      -1.098
  q+dip:        0.125       0.079       0.444       5.649       0.704      -0.569
   full:       -1.578       1.488       2.238       5.901      -1.250      -0.660

           -------------------------------------------------
          |                Geometry Summary                 |
           -------------------------------------------------

      molecular mass/u    :      166.2002322
   center of mass at/Å    :        0.3776216       0.1313022      -3.4510065
  moments of inertia/u·Å² :        0.3329568E+03   0.8198821E+03   0.9280014E+03
rotational constants/cm⁻¹ :        0.5063009E-01   0.2056104E-01   0.1816553E-01

 * 23 selected distances

     #   Z          #   Z                                           value/Å
     2   6 C        3   1 H                                       1.0937962
     2   6 C        4   1 H                                       1.0933114
     2   6 C        5   6 C                                       1.5224056
     5   6 C        6   1 H                                       1.0883712
     5   6 C        7   1 H                                       1.0888895
     5   6 C        8   1 H                                       1.0889195
     9   6 C       10   6 C                                       1.3904853
     9   6 C       11   6 C                                       1.3901898
    10   6 C       12   6 C                                       1.3833194
    11   6 C       13   6 C                                       1.3827056
    12   6 C       14   6 C                                       1.3841877
    13   6 C       14   6 C                                       1.3852965
    10   6 C       15   1 H                                       1.0813572
    11   6 C       16   1 H                                       1.0807284
    12   6 C       17   1 H                                       1.0805027
    13   6 C       18   1 H                                       1.0809845
    14   6 C       19   1 H                                       1.0803088 (min)
    20   6 C       21   1 H                                       1.0940827
    20   6 C       22   1 H                                       1.0935087
    20   6 C       23   6 C                                       1.5225700 (max)
    23   6 C       24   1 H                                       1.0882077
    23   6 C       25   1 H                                       1.0879261
    23   6 C       26   1 H                                       1.0888970

 * 2 distinct bonds (by element types)

   Z      Z             #   av. dist./Å        max./Å        min./Å
   1 H    6 C          15     1.0873195     1.0940827     1.0803088
   6 C    6 C           8     1.4201450     1.5225700     1.3827056

           -------------------------------------------------
          |               Frequency Printout                |
           -------------------------------------------------
 projected vibrational frequencies (cm⁻¹)
eigval :       -0.00    -0.00     0.00     0.00     0.00     0.00
eigval :       23.12    54.02    72.01    94.30   143.68   167.74
eigval :      203.27   215.82   224.36   265.66   314.24   328.74
eigval :      363.20   425.52   450.69   586.05   655.62   660.24
eigval :      685.96   701.93   739.17   754.46   778.03   874.78
eigval :      898.90   926.61   932.73   968.74   974.90   997.71
eigval :     1013.15  1016.95  1071.42  1076.74  1083.10  1117.53
eigval :     1121.37  1181.65  1199.07  1220.40  1225.56  1250.37
eigval :     1255.57  1278.13  1315.60  1409.47  1411.33  1423.39
eigval :     1446.23  1451.17  1459.00  1497.31  1498.50  1501.87
eigval :     1502.28  1579.88  1589.65  2929.07  2934.46  2946.67
eigval :     2949.89  3013.21  3014.11  3020.18  3026.85  3029.55
eigval :     3033.81  3063.41  3063.98  3072.11  3077.52  3087.88
 reduced masses (amu)
   1: 11.12   2: 13.77   3: 11.02   4: 14.10   5: 14.68   6: 12.12   7: 10.17   8:  9.75
   9:  9.20  10:  9.32  11:  8.14  12:  6.24  13:  7.91  14:  3.90  15:  8.50  16:  9.79
  17: 13.41  18: 12.87  19:  8.83  20: 20.67  21: 10.56  22: 11.18  23: 11.94  24: 11.65
  25: 14.19  26: 15.19  27:  4.23  28:  4.07  29:  5.00  30:  3.30  31:  3.54  32:  4.19
  33:  3.01  34:  9.78  35:  3.67  36:  3.21  37:  3.68  38:  4.26  39:  9.60  40:  9.30
  41:  7.88  42:  7.46  43:  5.55  44:  1.33  45:  1.93  46:  3.69  47:  3.35  48:  4.35
  49:  4.27  50:  3.40  51: 11.95  52:  2.94  53:  2.96  54:  8.60  55:  2.52  56:  2.55
  57:  7.32  58:  1.52  59:  1.54  60:  1.55  61:  1.55  62: 11.45  63: 11.46  64:  1.92
  65:  1.92  66:  1.54  67:  1.56  68:  1.89  69:  1.86  70:  1.87  71:  1.93  72:  1.41
  73:  1.35  74:  1.76  75:  1.79  76:  1.82  77:  1.87  78:  1.92
 IR intensities (km·mol⁻¹)
   1:  0.09   2:  0.03   3:  0.13   4:  0.01   5:  0.20   6:  0.09   7:  0.22   8:  0.01
   9:  0.07  10:  0.09  11:  0.22  12:  0.24  13:  0.10  14:  0.33  15:  0.22  16:  0.33
  17:  0.08  18:  0.26  19:  0.02  20:  8.86  21:  3.04  22:  0.09  23:  5.48  24:  4.86
  25: 12.34  26: 46.38  27:  6.90  28: 18.45  29: 23.55  30:  0.13  31:  0.03  32:  0.07
  33:  0.00  34:  2.32  35:  1.78  36:  4.11  37:  2.88  38:  2.78  39:  2.72  40:  4.85
  41:  0.18  42:  4.24  43:  3.25  44:  0.02  45:  0.57  46:  1.38  47:  2.45  48:  6.62
  49:  8.01  50:  1.51  51:  0.74  52:  1.52  53:  1.94  54:  1.66  55:  0.59  56:  0.25
  57:  0.33  58:  2.98  59:  2.60  60:  1.87  61:  0.76  62:  0.58  63:  0.50  64:  6.01
  65: 37.80  66:  9.59  67: 27.84  68: 51.94  69: 49.35  70: 31.20  71: 29.82  72: 17.83
  73: 24.31  74: 15.53  75:  1.37  76: 10.27  77: 86.32  78: 61.29
 Raman intensities (Ä⁴*amu⁻¹)
   1:  0.00   2:  0.00   3:  0.00   4:  0.00   5:  0.00   6:  0.00   7:  0.00   8:  0.00
   9:  0.00  10:  0.00  11:  0.00  12:  0.00  13:  0.00  14:  0.00  15:  0.00  16:  0.00
  17:  0.00  18:  0.00  19:  0.00  20:  0.00  21:  0.00  22:  0.00  23:  0.00  24:  0.00
  25:  0.00  26:  0.00  27:  0.00  28:  0.00  29:  0.00  30:  0.00  31:  0.00  32:  0.00
  33:  0.00  34:  0.00  35:  0.00  36:  0.00  37:  0.00  38:  0.00  39:  0.00  40:  0.00
  41:  0.00  42:  0.00  43:  0.00  44:  0.00  45:  0.00  46:  0.00  47:  0.00  48:  0.00
  49:  0.00  50:  0.00  51:  0.00  52:  0.00  53:  0.00  54:  0.00  55:  0.00  56:  0.00
  57:  0.00  58:  0.00  59:  0.00  60:  0.00  61:  0.00  62:  0.00  63:  0.00  64:  0.00
  65:  0.00  66:  0.00  67:  0.00  68:  0.00  69:  0.00  70:  0.00  71:  0.00  72:  0.00
  73:  0.00  74:  0.00  75:  0.00  76:  0.00  77:  0.00  78:  0.00
 output can be read by thermo (or use thermo option).
 writing <g98.out> molden fake output.
 recommended (thermochemical) frequency scaling factor: 1.0
           -------------------------------------------------
          |             Thermodynamic Functions             |
           -------------------------------------------------

Refinement of some symmetry elements was terminated before convergence was reached.
Some symmetry elements may remain unidentified.
Molecule has no symmetry elements
It seems to be the C1 point group
c1  symmetry found (for desy threshold:  0.10E+00) used in thermo

          ...................................................
          :                      SETUP                      :
          :.................................................:
          :  # frequencies                          72      :
          :  # imaginary freq.                       0      :
          :  linear?                             false      :
          :  only rotor calc.                    false      :
          :  symmetry                               c1      :
          :  rotational number                       1      :
          :  scaling factor                  1.0000000      :
          :  rotor cutoff                   50.0000000 cm⁻¹ :
          :  imag. cutoff                  -20.0000000 cm⁻¹ :
          :.................................................:

    mode    ω/cm⁻¹     T·S(HO)/kcal·mol⁻¹    T·S(FR)/kcal·mol⁻¹   T·S(vib)
   ------------------------------------------------------------------------
       1     23.12    -1.89226 (  4.37%)    -1.28478 ( 95.63%)    -1.31132
       2     54.02    -1.39074 ( 57.67%)    -1.03351 ( 42.33%)    -1.23952
       3     72.01    -1.22171 ( 81.14%)    -0.94839 ( 18.86%)    -1.17016
       4     94.30    -1.06403 ( 92.68%)    -0.86851 (  7.32%)    -1.04971
       5    143.68    -0.82117 ( 98.55%)    -0.74379 (  1.45%)    -0.82005
       6    167.74    -0.73365 ( 99.22%)    -0.69794 (  0.78%)    -0.73337
       7    203.27    -0.62711 ( 99.64%)    -0.64104 (  0.36%)    -0.62716
       8    215.82    -0.59448 ( 99.71%)    -0.62329 (  0.29%)    -0.59457
       9    224.36    -0.57353 ( 99.75%)    -0.61179 (  0.25%)    -0.57362
      10    265.66    -0.48427 ( 99.87%)    -0.56174 (  0.13%)    -0.48437
   ------------------------------------------------------------------------

   temp. (K)  partition function   enthalpy   heat capacity  entropy
                                   cal/mol     cal/K/mol   cal/K/mol   J/K/mol
 298.15  VIB  0.282E+05             6230.405     39.282     38.583
         ROT  0.122E+07              888.752      2.981     30.824
         INT  0.343E+11             7119.157     42.262     69.408
         TR   0.207E+28             1481.254      4.968     41.214
         TOT                        8600.4114    47.2306   110.6213   462.8396

       T/K    H(0)-H(T)+PV         H(T)/Eh          T*S/Eh         G(T)/Eh
   ------------------------------------------------------------------------
    298.15    0.137056E-01    0.232277E+00    0.525598E-01    0.179717E+00
   ------------------------------------------------------------------------

         :::::::::::::::::::::::::::::::::::::::::::::::::::::
         ::                  THERMODYNAMIC                  ::
         :::::::::::::::::::::::::::::::::::::::::::::::::::::
         :: total free energy         -31.376390656570 Eh   ::
         ::.................................................::
         :: total energy              -31.556107559119 Eh   ::
         :: zero point energy           0.218571028170 Eh   ::
         :: G(RRHO) w/o ZPVE           -0.038854125621 Eh   ::
         :: G(RRHO) contrib.            0.179716902549 Eh   ::
         :::::::::::::::::::::::::::::::::::::::::::::::::::::

optimized geometry written to: xtbopt.xyz


           -------------------------------------------------
          | TOTAL ENERGY              -31.556107559119 Eh   |
          | TOTAL ENTHALPY            -31.323830903005 Eh   |
          | TOTAL FREE ENERGY         -31.376390656570 Eh   |
          | GRADIENT NORM               0.000023461943 Eh/α |
          | HOMO-LUMO GAP               3.640725061854 eV   |
           -------------------------------------------------

------------------------------------------------------------------------
 * finished run on 2025/07/14 at 11:32:52.924     
------------------------------------------------------------------------
 total:
 * wall-time:     0 d,  0 h,  0 min, 23.887 sec
 *  cpu-time:     0 d,  0 h,  4 min, 30.597 sec
 * ratio c/w:    11.328 speedup
 SCF:
 * wall-time:     0 d,  0 h,  0 min,  0.087 sec
 *  cpu-time:     0 d,  0 h,  0 min,  1.037 sec
 * ratio c/w:    11.970 speedup
 ANC optimizer:
 * wall-time:     0 d,  0 h,  0 min, 20.505 sec
 *  cpu-time:     0 d,  0 h,  4 min,  3.100 sec
 * ratio c/w:    11.856 speedup
 analytical hessian:
 * wall-time:     0 d,  0 h,  0 min,  3.286 sec
 *  cpu-time:     0 d,  0 h,  0 min, 26.358 sec
 * ratio c/w:     8.021 speedup

