      -----------------------------------------------------------      
     |                   =====================                   |     
     |                           x T B                           |     
     |                   =====================                   |     
     |                         S. Grimme                         |     
     |          Mulliken Center for Theoretical Chemistry        |     
     |                    University of Bonn                     |     
      -----------------------------------------------------------      

   * xtb version 6.7.0 (08769fc) compiled by 'albert@albert-system' on 2024-03-04

   xtb is free software: you can redistribute it and/or modify it under
   the terms of the GNU Lesser General Public License as published by
   the Free Software Foundation, either version 3 of the License, or
   (at your option) any later version.
   
   xtb is distributed in the hope that it will be useful,
   but WITHOUT ANY WARRANTY; without even the implied warranty of
   MERCHANTABILITY or FITNESS FOR A PARTICULAR PURPOSE.  See the
   GNU Lesser General Public License for more details.
   
   Cite this work as:
   * C. Bannwarth, E. Caldeweyher, S. Ehlert, A. Hansen, P. Pracht,
     J. Seibert, S. Spicher, S. Grimme, WIREs Comput. Mol. Sci., 2020, 11,
     e01493. DOI: 10.1002/wcms.1493
   
   for GFN2-xTB:
   * C. Bannwarth, S. Ehlert and S. Grimme., J. Chem. Theory Comput., 2019,
     15, 1652-1671. DOI: 10.1021/acs.jctc.8b01176
   for GFN1-xTB:
   * S. Grimme, C. Bannwarth, P. Shushkov, J. Chem. Theory Comput., 2017,
     13, 1989-2009. DOI: 10.1021/acs.jctc.7b00118
   for GFN0-xTB:
   * P. Pracht, E. Caldeweyher, S. Ehlert, S. Grimme, ChemRxiv, 2019, preprint.
     DOI: 10.26434/chemrxiv.8326202.v1
   for GFN-FF:
   * S. Spicher and S. Grimme, Angew. Chem. Int. Ed., 2020, 59, 15665-15673.
     DOI: 10.1002/anie.202004239
   
   for ALPB and GBSA implicit solvation:
   * S. Ehlert, M. Stahn, S. Spicher, S. Grimme, J. Chem. Theory Comput.,
     2021, 17, 4250-4261. DOI: 10.1021/acs.jctc.1c00471
   
   for ddCOSMO and CPCM-X implicit solvation:
   * M. Stahn, S. Ehlert, S. Grimme, J. Phys. Chem. A,
     2023, XX, XXXX-XXXX. DOI: 10.1021/acs.jpca.3c04382
   
   for DFT-D4:
   * E. Caldeweyher, C. Bannwarth and S. Grimme, J. Chem. Phys., 2017,
     147, 034112. DOI: 10.1063/1.4993215
   * E. Caldeweyher, S. Ehlert, A. Hansen, H. Neugebauer, S. Spicher,
     C. Bannwarth and S. Grimme, J. Chem. Phys., 2019, 150, 154122.
     DOI: 10.1063/1.5090222
   * E. Caldeweyher, J.-M. Mewes, S. Ehlert and S. Grimme, Phys. Chem. Chem. Phys.
     2020, 22, 8499-8512. DOI: 10.1039/D0CP00502A
   
   for sTDA-xTB:
   * S. Grimme and C. Bannwarth, J. Chem. Phys., 2016, 145, 054103.
     DOI: 10.1063/1.4959605
   
   in the mass-spec context:
   * V. Asgeirsson, C. Bauer and S. Grimme, Chem. Sci., 2017, 8, 4879.
     DOI: 10.1039/c7sc00601b
   * J. Koopman and S. Grimme, ACS Omega 2019, 4, 12, 15120-15133.
     DOI: 10.1021/acsomega.9b02011
   
   for metadynamics refer to:
   * S. Grimme, J. Chem. Theory Comput., 2019, 155, 2847-2862
     DOI: 10.1021/acs.jctc.9b00143
   
   for SPH calculations refer to:
   * S. Spicher and S. Grimme, J. Chem. Theory Comput., 2021, 17, 1701-1714
     DOI: 10.1021/acs.jctc.0c01306
   
   for ONIOM refer to:
   * C. Plett, A. Katbashev, S. Ehlert, S. Grimme, M. Bursch,
     Phys. Chem. Chem. Phys., 2023, 25, 17860-17868. DOI: 10.1039/D3CP02178E
   
   for DIPRO refer to:
   * J. Kohn, N. Gildemeister, S. Grimme, D. Fazzi, A. Hansen,
     J. Chem. Phys., 2023, just accepted.
   
   for PTB refer to:
   * S. Grimme, M. Mueller, A. Hansen, J. Chem. Phys., 2023, 158, 124111.
     DOI: 10.1063/5.0137838
   
   with help from (in alphabetical order)
   P. Atkinson, C. Bannwarth, F. Bohle, G. Brandenburg, E. Caldeweyher
   M. Checinski, S. Dohm, S. Ehlert, S. Ehrlich, I. Gerasimov, C. Hölzer
   A. Katbashev, J. Kohn, J. Koopman, C. Lavigne, S. Lehtola, F. März, M. Müller,
   F. Musil, H. Neugebauer, J. Pisarek, C. Plett, P. Pracht, F. Pultar,
   J. Seibert, P. Shushkov, S. Spicher, M. Stahn, M. Steiner, T. Strunk,
   J. Stückrath, T. Rose, and J. Unsleber
   
 * started run on 2025/07/14 at 11:33:08.759     
   ID    Z sym.   atoms
    1   15 P      1
    2    6 C      2, 5, 9-14, 20, 23
    3    1 H      3, 4, 6-8, 15-19, 21, 22, 24-26

           -------------------------------------------------
          |                Calculation Setup                |
           -------------------------------------------------

          program call               : /home/minenky/programs/xtb/xtb-dist/bin/xtb m1_00_PEt2Ph-PBE0-D3-TZ-uniMM_45.xyz --charge 0 --T --ohess extreme --cycles 5000 --acc 0.01 --iterations 5000
          coordinate file            : m1_00_PEt2Ph-PBE0-D3-TZ-uniMM_45.xyz
          omp threads                :                    12

########################################################################
[WARNING] Please study the warnings concerning your input carefully
-1- prog_main_parseArguments: Unknown option '--T' provided
########################################################################

           -------------------------------------------------
          |                 G F N 2 - x T B                 |
           -------------------------------------------------

        Reference                      10.1021/acs.jctc.8b01176
      * Hamiltonian:
        H0-scaling (s, p, d)           1.850000    2.230000    2.230000
        zeta-weighting                 0.500000
      * Dispersion:
        s8                             2.700000
        a1                             0.520000
        a2                             5.000000
        s9                             5.000000
      * Repulsion:
        kExp                           1.500000    1.000000
        rExp                           1.000000
      * Coulomb:
        alpha                          2.000000
        third order                    shell-resolved
        anisotropic                    true
        a3                             3.000000
        a5                             4.000000
        cn-shift                       1.200000
        cn-exp                         4.000000
        max-rad                        5.000000


          ...................................................
          :                      SETUP                      :
          :.................................................:
          :  # basis functions                  65          :
          :  # atomic orbitals                  64          :
          :  # shells                           38          :
          :  # electrons                        60          :
          :  max. iterations                  5000          :
          :  Hamiltonian                  GFN2-xTB          :
          :  restarted?                      false          :
          :  GBSA solvation                  false          :
          :  PC potential                    false          :
          :  electronic temp.          300.0000000     K    :
          :  accuracy                    0.0100000          :
          :  -> integral cutoff          0.4500000E+02      :
          :  -> integral neglect         0.1000000E-09      :
          :  -> SCF convergence          0.1000000E-07 Eh   :
          :  -> wf. convergence          0.1000000E-05 e    :
          :  Broyden damping             0.4000000          :
          :  net charge                          0          :
          :  unpaired electrons                  0          :
          ...................................................

 iter      E             dE          RMSdq      gap      omega  full diag
   1    -32.0082359 -0.320082E+02  0.374E+00    4.04       0.0  T
   2    -32.0520191 -0.437832E-01  0.220E+00    3.58       1.0  T
   3    -32.0515851  0.434003E-03  0.928E-01    3.32       1.0  T
   4    -32.0530529 -0.146789E-02  0.265E-01    3.35       1.0  T
   5    -32.0541014 -0.104848E-02  0.132E-01    3.40       1.0  T
   6    -32.0543409 -0.239452E-03  0.429E-02    3.39       1.0  T
   7    -32.0543522 -0.113212E-04  0.162E-02    3.39       1.2  T
   8    -32.0543536 -0.138751E-05  0.669E-03    3.39       2.9  T
   9    -32.0543540 -0.450585E-06  0.140E-03    3.39      14.0  T
  10    -32.0543541 -0.238585E-07  0.630E-04    3.39      31.1  T
  11    -32.0543541 -0.590795E-09  0.270E-04    3.39      72.7  T
  12    -32.0543541 -0.579888E-09  0.550E-05    3.39     356.7  T
  13    -32.0543541 -0.667200E-11  0.288E-05    3.39     681.5  T
  14    -32.0543541 -0.354561E-11  0.924E-06    3.39    2122.9  T
  15    -32.0543541  0.994760E-13  0.342E-06    3.39    5730.7  T

   *** convergence criteria satisfied after 15 iterations ***

         #    Occupation            Energy/Eh            Energy/eV
      -------------------------------------------------------------
         1        2.0000           -0.6588547             -17.9283
       ...           ...                  ...                  ...
        24        2.0000           -0.4308726             -11.7246
        25        2.0000           -0.4236924             -11.5293
        26        2.0000           -0.4183557             -11.3840
        27        2.0000           -0.4054768             -11.0336
        28        2.0000           -0.4030464             -10.9675
        29        2.0000           -0.3985726             -10.8457
        30        2.0000           -0.3569529              -9.7132 (HOMO)
        31                         -0.2323987              -6.3239 (LUMO)
        32                         -0.2232312              -6.0744
        33                         -0.1547539              -4.2111
        34                         -0.1433686              -3.9013
        35                         -0.0927576              -2.5241
       ...                                ...                  ...
        64                          0.7724950              21.0207
      -------------------------------------------------------------
                  HL-Gap            0.1245542 Eh            3.3893 eV
             Fermi-level           -0.2946758 Eh           -8.0185 eV

 SCC (total)                   0 d,  0 h,  0 min,  0.088 sec
 SCC setup                      ...        0 min,  0.000 sec (  0.142%)
 Dispersion                     ...        0 min,  0.000 sec (  0.144%)
 classical contributions        ...        0 min,  0.000 sec (  0.011%)
 integral evaluation            ...        0 min,  0.002 sec (  2.320%)
 iterations                     ...        0 min,  0.083 sec ( 94.832%)
 molecular gradient             ...        0 min,  0.002 sec (  2.443%)
 printout                       ...        0 min,  0.000 sec (  0.089%)

         :::::::::::::::::::::::::::::::::::::::::::::::::::::
         ::                     SUMMARY                     ::
         :::::::::::::::::::::::::::::::::::::::::::::::::::::
         :: total energy             -31.539372917829 Eh    ::
         :: gradient norm              0.037155457885 Eh/a0 ::
         :: HOMO-LUMO gap              3.389291245173 eV    ::
         ::.................................................::
         :: SCC energy               -32.054182642299 Eh    ::
         :: -> isotropic ES            0.004378209166 Eh    ::
         :: -> anisotropic ES          0.006021826655 Eh    ::
         :: -> anisotropic XC          0.021992766367 Eh    ::
         :: -> dispersion             -0.023313723881 Eh    ::
         :: repulsion energy           0.514809724469 Eh    ::
         :: add. restraining           0.000000000000 Eh    ::
         :: total charge              -0.000000000000 e     ::
         :::::::::::::::::::::::::::::::::::::::::::::::::::::

      ----------------------------------------------------------- 
     |                   =====================                   |
     |                        A N C O P T                        |
     |                   =====================                   |
     |               Approximate Normal Coordinate               |
     |                Rational Function Optimizer                |
      ----------------------------------------------------------- 
      ----------------------------------------------------------- 
     |                   =====================                   |
     |                        A N C O P T                        |
     |                   =====================                   |
     |               Approximate Normal Coordinate               |
     |                Rational Function Optimizer                |
      ----------------------------------------------------------- 

          ...................................................
          :                      SETUP                      :
          :.................................................:
          :   optimization level           extreme          :
          :   max. optcycles                  5000          :
          :   ANC micro-cycles                  20          :
          :   degrees of freedom                72          :
          :.................................................:
          :   RF solver                   davidson          :
          :   write xtbopt.log                true          :
          :   linear?                        false          :
          :   energy convergence         0.5000000E-07 Eh   :
          :   grad. convergence          0.5000000E-04 Eh/α :
          :   maxmium RF displ.          1.0000000          :
          :   Hlow (freq-cutoff)         0.1000000E-01      :
          :   Hmax (freq-cutoff)         5.0000000          :
          :   S6 in model hess.         20.0000000          :
          ...................................................

generating ANC from model Hessian ...
Using Lindh-Hessian (1995)
 Shifting diagonal of input Hessian by   1.174220284272903E-002
 Lowest  eigenvalues of input Hessian
    0.010000    0.011290    0.000000    0.000000    0.000000    0.000000
    0.000000    0.000000    0.012646    0.012839    0.013902    0.014021
    0.017206    0.019273    0.020402    0.021664    0.025576    0.026147
 Highest eigenvalues
    1.349399    1.537339    1.564362    1.866476    1.968245    1.988128
 

........................................................................
.............................. CYCLE    1 ..............................
........................................................................

 iter      E             dE          RMSdq      gap      omega  full diag
   1    -32.0543541 -0.320544E+02  0.134E-06    3.39       0.0  T
   2    -32.0543541  0.213163E-13  0.741E-07    3.39   26468.4  T
   3    -32.0543541  0.000000E+00  0.470E-07    3.39   41744.2  T
     SCC iter.                  ...        0 min,  0.075 sec
     gradient                   ...        0 min,  0.002 sec
 * total energy  :   -31.5393729 Eh     change       -0.2557954E-12 Eh
   gradient norm :     0.0371555 Eh/α   predicted     0.0000000E+00 (-100.00%)
   displ. norm   :     0.4833038 α      lambda       -0.7655930E-02
   maximum displ.:     0.4088694 α      in ANC's #1, #6, #5, ...

........................................................................
.............................. CYCLE    2 ..............................
........................................................................

 iter      E             dE          RMSdq      gap      omega  full diag
   1    -32.0625013 -0.320625E+02  0.247E-01    3.47       0.0  T
   2    -32.0625968 -0.955025E-04  0.133E-01    3.50       1.0  T
   3    -32.0626031 -0.629797E-05  0.519E-02    3.51       1.0  T
   4    -32.0626079 -0.483785E-05  0.257E-02    3.51       1.0  T
   5    -32.0626102 -0.230702E-05  0.807E-03    3.51       2.4  T
   6    -32.0626110 -0.708920E-06  0.400E-03    3.51       4.9  T
   7    -32.0626110 -0.554948E-07  0.811E-04    3.51      24.2  T
   8    -32.0626110 -0.128537E-08  0.323E-04    3.51      60.7  T
   9    -32.0626110 -0.132914E-08  0.111E-04    3.51     176.1  T
  10    -32.0626110 -0.696687E-10  0.552E-05    3.51     355.4  T
  11    -32.0626110 -0.665779E-11  0.217E-05    3.51     902.4  T
  12    -32.0626110 -0.234479E-11  0.545E-06    3.51    3600.5  T
  13    -32.0626110 -0.262901E-12  0.219E-06    3.51    8970.5  T
     SCC iter.                  ...        0 min,  0.074 sec
     gradient                   ...        0 min,  0.002 sec
 * total energy  :   -31.5438479 Eh     change       -0.4475011E-02 Eh
   gradient norm :     0.0167502 Eh/α   predicted    -0.4722201E-02 (   5.52%)
   displ. norm   :     0.2766722 α      lambda       -0.1657162E-02
   maximum displ.:     0.2024619 α      in ANC's #1, #6, #5, ...

........................................................................
.............................. CYCLE    3 ..............................
........................................................................

 iter      E             dE          RMSdq      gap      omega  full diag
   1    -32.0636564 -0.320637E+02  0.102E-01    3.52       0.0  T
   2    -32.0636618 -0.537830E-05  0.569E-02    3.53       1.0  T
   3    -32.0636611  0.625979E-06  0.206E-02    3.53       1.0  T
   4    -32.0636627 -0.156393E-05  0.575E-03    3.53       3.4  T
   5    -32.0636626  0.465047E-07  0.325E-03    3.53       6.0  T
   6    -32.0636628 -0.155158E-06  0.141E-03    3.53      13.9  T
   7    -32.0636628 -0.219833E-08  0.311E-04    3.53      63.0  T
   8    -32.0636628 -0.275897E-09  0.955E-05    3.53     205.4  T
   9    -32.0636628 -0.126789E-09  0.244E-05    3.53     804.2  T
  10    -32.0636628 -0.202505E-11  0.110E-05    3.53    1786.7  T
  11    -32.0636628 -0.248690E-12  0.414E-06    3.53    4740.2  T
  12    -32.0636628 -0.106581E-12  0.206E-06    3.53    9508.6  T
     SCC iter.                  ...        0 min,  0.075 sec
     gradient                   ...        0 min,  0.002 sec
 * total energy  :   -31.5449842 Eh     change       -0.1136237E-02 Eh
   gradient norm :     0.0061399 Eh/α   predicted    -0.8920155E-03 ( -21.49%)
   displ. norm   :     0.2647262 α      lambda       -0.6735898E-03
   maximum displ.:     0.1832510 α      in ANC's #1, #6, #8, ...

........................................................................
.............................. CYCLE    4 ..............................
........................................................................

 iter      E             dE          RMSdq      gap      omega  full diag
   1    -32.0632170 -0.320632E+02  0.804E-02    3.53       0.0  T
   2    -32.0632189 -0.182427E-05  0.455E-02    3.54       1.0  T
   3    -32.0632188  0.180036E-07  0.115E-02    3.54       1.7  T
   4    -32.0632192 -0.339306E-06  0.286E-03    3.54       6.9  T
   5    -32.0632192 -0.568409E-08  0.133E-03    3.54      14.7  T
   6    -32.0632192 -0.100164E-07  0.643E-04    3.54      30.5  T
   7    -32.0632192 -0.492030E-09  0.213E-04    3.54      91.9  T
   8    -32.0632192 -0.632767E-09  0.546E-05    3.54     359.5  T
   9    -32.0632192 -0.401457E-10  0.235E-05    3.54     834.8  T
  10    -32.0632192 -0.470379E-11  0.871E-06    3.54    2251.3  T
  11    -32.0632192 -0.341061E-12  0.436E-06    3.54    4500.1  T
     SCC iter.                  ...        0 min,  0.073 sec
     gradient                   ...        0 min,  0.002 sec
 * total energy  :   -31.5454253 Eh     change       -0.4411115E-03 Eh
   gradient norm :     0.0050256 Eh/α   predicted    -0.3603988E-03 ( -18.30%)
   displ. norm   :     0.1948134 α      lambda       -0.2597087E-03
   maximum displ.:     0.1118071 α      in ANC's #1, #6, #8, ...

........................................................................
.............................. CYCLE    5 ..............................
........................................................................

 iter      E             dE          RMSdq      gap      omega  full diag
   1    -32.0634492 -0.320634E+02  0.590E-02    3.54       0.0  T
   2    -32.0634497 -0.502297E-06  0.342E-02    3.54       1.0  T
   3    -32.0634494  0.283944E-06  0.464E-03    3.54       4.2  T
   4    -32.0634497 -0.350830E-06  0.212E-03    3.54       9.2  T
   5    -32.0634498 -0.647615E-07  0.866E-04    3.54      22.7  T
   6    -32.0634498 -0.191854E-08  0.272E-04    3.54      72.2  T
   7    -32.0634498 -0.412754E-10  0.979E-05    3.54     200.4  T
   8    -32.0634498 -0.366214E-10  0.295E-05    3.54     665.3  T
   9    -32.0634498 -0.773781E-11  0.108E-05    3.54    1808.2  T
  10    -32.0634498 -0.138556E-11  0.394E-06    3.54    4974.8  T
  11    -32.0634498 -0.497380E-13  0.229E-06    3.54    8576.0  T
     SCC iter.                  ...        0 min,  0.074 sec
     gradient                   ...        0 min,  0.002 sec
 * total energy  :   -31.5456239 Eh     change       -0.1986431E-03 Eh
   gradient norm :     0.0043841 Eh/α   predicted    -0.1347832E-03 ( -32.15%)
   displ. norm   :     0.3041526 α      lambda       -0.3246164E-03
   maximum displ.:     0.1816551 α      in ANC's #6, #1, #4, ...

........................................................................
.............................. CYCLE    6 ..............................
........................................................................

 iter      E             dE          RMSdq      gap      omega  full diag
   1    -32.0637748 -0.320638E+02  0.963E-02    3.55       0.0  T
   2    -32.0637761 -0.130679E-05  0.556E-02    3.55       1.0  T
   3    -32.0637752  0.914758E-06  0.798E-03    3.55       2.5  T
   4    -32.0637763 -0.111064E-05  0.309E-03    3.55       6.3  T
   5    -32.0637764 -0.134222E-06  0.133E-03    3.55      14.8  T
   6    -32.0637764 -0.217334E-08  0.367E-04    3.55      53.5  T
   7    -32.0637764 -0.484235E-10  0.153E-04    3.55     127.8  T
   8    -32.0637764 -0.836735E-10  0.422E-05    3.55     464.8  T
   9    -32.0637764 -0.181046E-10  0.151E-05    3.55    1302.6  T
  10    -32.0637764 -0.222400E-11  0.593E-06    3.55    3307.0  T
  11    -32.0637764 -0.419220E-12  0.275E-06    3.55    7131.2  T
     SCC iter.                  ...        0 min,  0.073 sec
     gradient                   ...        0 min,  0.002 sec
 * total energy  :   -31.5458781 Eh     change       -0.2541593E-03 Eh
   gradient norm :     0.0035168 Eh/α   predicted    -0.1773243E-03 ( -30.23%)
   displ. norm   :     0.4570107 α      lambda       -0.4340672E-03
   maximum displ.:     0.2820414 α      in ANC's #6, #4, #3, ...

........................................................................
.............................. CYCLE    7 ..............................
........................................................................

 iter      E             dE          RMSdq      gap      omega  full diag
   1    -32.0632888 -0.320633E+02  0.146E-01    3.55       0.0  T
   2    -32.0632917 -0.291172E-05  0.839E-02    3.56       1.0  T
   3    -32.0632904  0.130561E-05  0.112E-02    3.55       1.8  T
   4    -32.0632921 -0.170157E-05  0.383E-03    3.56       5.1  T
   5    -32.0632923 -0.195866E-06  0.181E-03    3.56      10.9  T
   6    -32.0632923 -0.928327E-08  0.652E-04    3.56      30.1  T
   7    -32.0632923 -0.179554E-09  0.240E-04    3.56      81.7  T
   8    -32.0632923 -0.357858E-09  0.669E-05    3.56     293.1  T
   9    -32.0632923 -0.747278E-10  0.262E-05    3.56     749.6  T
  10    -32.0632923 -0.530775E-11  0.792E-06    3.56    2477.6  T
  11    -32.0632923 -0.483169E-12  0.340E-06    3.56    5774.9  T
     SCC iter.                  ...        0 min,  0.073 sec
     gradient                   ...        0 min,  0.002 sec
 * total energy  :   -31.5462399 Eh     change       -0.3618192E-03 Eh
   gradient norm :     0.0064749 Eh/α   predicted    -0.2623664E-03 ( -27.49%)
   displ. norm   :     0.5888539 α      lambda       -0.6456130E-03
   maximum displ.:     0.3454229 α      in ANC's #6, #4, #3, ...

........................................................................
.............................. CYCLE    8 ..............................
........................................................................

 iter      E             dE          RMSdq      gap      omega  full diag
   1    -32.0623292 -0.320623E+02  0.182E-01    3.56       0.0  T
   2    -32.0623328 -0.360134E-05  0.105E-01    3.56       1.0  T
   3    -32.0623314  0.139547E-05  0.128E-02    3.56       1.5  T
   4    -32.0623334 -0.200352E-05  0.375E-03    3.56       5.2  T
   5    -32.0623335 -0.135040E-06  0.207E-03    3.56       9.5  T
   6    -32.0623336 -0.348363E-07  0.837E-04    3.56      23.4  T
   7    -32.0623336 -0.576989E-09  0.298E-04    3.56      65.7  T
   8    -32.0623336 -0.776474E-09  0.762E-05    3.56     257.2  T
   9    -32.0623336 -0.890594E-10  0.313E-05    3.56     625.8  T
  10    -32.0623336 -0.117595E-10  0.101E-05    3.56    1938.0  T
  11    -32.0623336 -0.191847E-12  0.369E-06    3.56    5308.9  T
  12    -32.0623336 -0.568434E-13  0.129E-06    3.56   15226.1  T
     SCC iter.                  ...        0 min,  0.074 sec
     gradient                   ...        0 min,  0.002 sec
 * total energy  :   -31.5467962 Eh     change       -0.5562993E-03 Eh
   gradient norm :     0.0124960 Eh/α   predicted    -0.4347404E-03 ( -21.85%)
   displ. norm   :     0.6365165 α      lambda       -0.9810016E-03
   maximum displ.:     0.3327293 α      in ANC's #6, #4, #3, ...

........................................................................
.............................. CYCLE    9 ..............................
........................................................................

 iter      E             dE          RMSdq      gap      omega  full diag
   1    -32.0634339 -0.320634E+02  0.183E-01    3.56       0.0  T
   2    -32.0634375 -0.360789E-05  0.106E-01    3.56       1.0  T
   3    -32.0634361  0.131583E-05  0.152E-02    3.56       1.3  T
   4    -32.0634381 -0.199573E-05  0.363E-03    3.56       5.4  T
   5    -32.0634382 -0.783244E-07  0.179E-03    3.56      11.0  T
   6    -32.0634383 -0.478596E-07  0.758E-04    3.56      25.9  T
   7    -32.0634383 -0.188954E-08  0.209E-04    3.56      93.8  T
   8    -32.0634383 -0.897700E-10  0.655E-05    3.56     299.6  T
   9    -32.0634383 -0.280522E-10  0.278E-05    3.56     705.6  T
  10    -32.0634383 -0.115392E-10  0.169E-05    3.56    1158.7  T
  11    -32.0634383 -0.810019E-12  0.538E-06    3.56    3642.6  T
  12    -32.0634383 -0.497380E-13  0.157E-06    3.56   12522.1  T
     SCC iter.                  ...        0 min,  0.077 sec
     gradient                   ...        0 min,  0.002 sec
 * total energy  :   -31.5476148 Eh     change       -0.8186234E-03 Eh
   gradient norm :     0.0172507 Eh/α   predicted    -0.6892304E-03 ( -15.81%)
   displ. norm   :     0.5892684 α      lambda       -0.1191632E-02
   maximum displ.:     0.3033469 α      in ANC's #6, #3, #4, ...

........................................................................
.............................. CYCLE   10 ..............................
........................................................................

 iter      E             dE          RMSdq      gap      omega  full diag
   1    -32.0659668 -0.320660E+02  0.160E-01    3.57       0.0  T
   2    -32.0659698 -0.294050E-05  0.934E-02    3.57       1.0  T
   3    -32.0659674  0.234870E-05  0.124E-02    3.58       1.6  T
   4    -32.0659702 -0.271380E-05  0.529E-03    3.57       3.7  T
   5    -32.0659705 -0.374818E-06  0.155E-03    3.57      12.6  T
   6    -32.0659705 -0.305533E-12  0.662E-04    3.57      29.6  T
   7    -32.0659705 -0.239180E-08  0.262E-04    3.57      74.8  T
   8    -32.0659705 -0.858506E-09  0.685E-05    3.57     286.2  T
   9    -32.0659705 -0.359321E-10  0.389E-05    3.57     504.3  T
  10    -32.0659705 -0.101608E-10  0.896E-06    3.57    2189.5  T
  11    -32.0659705 -0.568434E-13  0.384E-06    3.57    5106.0  T
     SCC iter.                  ...        0 min,  0.074 sec
     gradient                   ...        0 min,  0.002 sec
 * total energy  :   -31.5485810 Eh     change       -0.9661612E-03 Eh
   gradient norm :     0.0153857 Eh/α   predicted    -0.8027074E-03 ( -16.92%)
   displ. norm   :     0.6383201 α      lambda       -0.1161565E-02
   maximum displ.:     0.3677721 α      in ANC's #6, #3, #4, ...

........................................................................
.............................. CYCLE   11 ..............................
........................................................................

 iter      E             dE          RMSdq      gap      omega  full diag
   1    -32.0632221 -0.320632E+02  0.176E-01    3.58       0.0  T
   2    -32.0632247 -0.259865E-05  0.103E-01    3.58       1.0  T
   3    -32.0632204  0.437465E-05  0.165E-02    3.58       1.2  T
   4    -32.0632257 -0.537564E-05  0.391E-03    3.58       5.0  T
   5    -32.0632258 -0.917275E-07  0.187E-03    3.58      10.5  T
   6    -32.0632258 -0.132529E-07  0.625E-04    3.58      31.4  T
   7    -32.0632258 -0.303352E-09  0.244E-04    3.58      80.4  T
   8    -32.0632258 -0.807923E-09  0.749E-05    3.58     261.8  T
   9    -32.0632258 -0.333742E-10  0.315E-05    3.58     623.5  T
  10    -32.0632258 -0.101252E-10  0.140E-05    3.58    1400.2  T
  11    -32.0632258 -0.596856E-12  0.585E-06    3.58    3350.3  T
  12    -32.0632258 -0.106581E-12  0.210E-06    3.58    9341.7  T
     SCC iter.                  ...        0 min,  0.074 sec
     gradient                   ...        0 min,  0.002 sec
 * total energy  :   -31.5494809 Eh     change       -0.8999614E-03 Eh
   gradient norm :     0.0134321 Eh/α   predicted    -0.8174265E-03 (  -9.17%)
   displ. norm   :     0.4982484 α      lambda       -0.1824870E-02
   maximum displ.:     0.1969196 α      in ANC's #1, #8, #5, ...

........................................................................
.............................. CYCLE   12 ..............................
........................................................................

 iter      E             dE          RMSdq      gap      omega  full diag
   1    -32.0885548 -0.320886E+02  0.214E-01    3.62       0.0  T
   2    -32.0886286 -0.738889E-04  0.108E-01    3.60       1.0  T
   3    -32.0886311 -0.250468E-05  0.543E-02    3.62       1.0  T
   4    -32.0886349 -0.371457E-05  0.152E-02    3.61       1.3  T
   5    -32.0886351 -0.285122E-06  0.789E-03    3.61       2.5  T
   6    -32.0886357 -0.600887E-06  0.298E-03    3.61       6.6  T
   7    -32.0886358 -0.346848E-07  0.687E-04    3.61      28.5  T
   8    -32.0886358 -0.238969E-08  0.269E-04    3.61      73.0  T
   9    -32.0886358 -0.813053E-09  0.138E-04    3.61     142.5  T
  10    -32.0886358 -0.353495E-10  0.465E-05    3.61     421.5  T
  11    -32.0886358 -0.815703E-11  0.209E-05    3.61     936.6  T
  12    -32.0886358 -0.506617E-11  0.478E-06    3.61    4101.6  T
  13    -32.0886358 -0.994760E-13  0.203E-06    3.61    9646.5  T
     SCC iter.                  ...        0 min,  0.075 sec
     gradient                   ...        0 min,  0.002 sec
 * total energy  :   -31.5477751 Eh     change        0.1705854E-02 Eh
   gradient norm :     0.0396142 Eh/α   predicted    -0.1138952E-02 (-166.77%)
   displ. norm   :     0.3365555 α      lambda       -0.4484534E-02
   maximum displ.:     0.2135978 α      in ANC's #6, #3, #1, ...

........................................................................
.............................. CYCLE   13 ..............................
........................................................................

 iter      E             dE          RMSdq      gap      omega  full diag
   1    -32.0681713 -0.320682E+02  0.177E-01    3.60       0.0  T
   2    -32.0682153 -0.440218E-04  0.883E-02    3.61       1.0  T
   3    -32.0682171 -0.178931E-05  0.474E-02    3.60       1.0  T
   4    -32.0682195 -0.239138E-05  0.107E-02    3.61       1.8  T
   5    -32.0682194  0.975735E-07  0.584E-03    3.61       3.4  T
   6    -32.0682196 -0.242260E-06  0.180E-03    3.61      10.9  T
   7    -32.0682197 -0.204317E-07  0.458E-04    3.61      42.8  T
   8    -32.0682197 -0.120710E-08  0.182E-04    3.61     107.9  T
   9    -32.0682197 -0.335859E-09  0.941E-05    3.61     208.3  T
  10    -32.0682197 -0.251603E-10  0.393E-05    3.61     498.8  T
  11    -32.0682197 -0.279243E-11  0.153E-05    3.61    1284.8  T
  12    -32.0682197 -0.324007E-11  0.334E-06    3.61    5872.3  T
  13    -32.0682197 -0.568434E-13  0.165E-06    3.61   11915.2  T
     SCC iter.                  ...        0 min,  0.074 sec
     gradient                   ...        0 min,  0.002 sec
 * total energy  :   -31.5502299 Eh     change       -0.2454847E-02 Eh
   gradient norm :     0.0093727 Eh/α   predicted    -0.2496242E-02 (   1.69%)
   displ. norm   :     0.5046382 α      lambda       -0.6691761E-03
   maximum displ.:     0.2682748 α      in ANC's #6, #3, #4, ...

........................................................................
.............................. CYCLE   14 ..............................
........................................................................

 iter      E             dE          RMSdq      gap      omega  full diag
   1    -32.0612430 -0.320612E+02  0.141E-01    3.60       0.0  T
   2    -32.0612464 -0.334695E-05  0.822E-02    3.60       1.0  T
   3    -32.0612459  0.493245E-06  0.125E-02    3.59       1.6  T
   4    -32.0612469 -0.107514E-05  0.351E-03    3.60       5.6  T
   5    -32.0612470 -0.293026E-07  0.153E-03    3.60      12.8  T
   6    -32.0612470 -0.107529E-07  0.780E-04    3.60      25.1  T
   7    -32.0612470 -0.506146E-08  0.252E-04    3.60      77.8  T
   8    -32.0612470 -0.149406E-09  0.587E-05    3.60     334.3  T
   9    -32.0612470 -0.368772E-11  0.273E-05    3.60     719.6  T
  10    -32.0612470 -0.542144E-11  0.920E-06    3.60    2131.6  T
  11    -32.0612470 -0.525802E-12  0.332E-06    3.60    5902.8  T
     SCC iter.                  ...        0 min,  0.074 sec
     gradient                   ...        0 min,  0.002 sec
 * total energy  :   -31.5506047 Eh     change       -0.3747616E-03 Eh
   gradient norm :     0.0119425 Eh/α   predicted    -0.4197957E-03 (  12.02%)
   displ. norm   :     0.2464297 α      lambda       -0.5696481E-03
   maximum displ.:     0.1323725 α      in ANC's #6, #3, #4, ...

........................................................................
.............................. CYCLE   15 ..............................
........................................................................

 iter      E             dE          RMSdq      gap      omega  full diag
   1    -32.0631956 -0.320632E+02  0.784E-02    3.60       0.0  T
   2    -32.0631980 -0.240625E-05  0.435E-02    3.61       1.0  T
   3    -32.0631974  0.577901E-06  0.152E-02    3.60       1.3  T
   4    -32.0631984 -0.955073E-06  0.351E-03    3.61       5.6  T
   5    -32.0631984 -0.150126E-07  0.235E-03    3.61       8.4  T
   6    -32.0631984 -0.528022E-07  0.852E-04    3.61      23.0  T
   7    -32.0631984 -0.924025E-09  0.169E-04    3.61     116.1  T
   8    -32.0631984 -0.302435E-09  0.726E-05    3.61     270.2  T
   9    -32.0631984 -0.278035E-10  0.309E-05    3.61     635.2  T
  10    -32.0631984 -0.135998E-10  0.138E-05    3.61    1419.6  T
  11    -32.0631984 -0.639488E-12  0.411E-06    3.61    4770.7  T
  12    -32.0631984 -0.355271E-13  0.111E-06    3.61   17651.3  T
     SCC iter.                  ...        0 min,  0.074 sec
     gradient                   ...        0 min,  0.002 sec
 * total energy  :   -31.5510222 Eh     change       -0.4175004E-03 Eh
   gradient norm :     0.0107378 Eh/α   predicted    -0.3021205E-03 ( -27.64%)
   displ. norm   :     0.3346405 α      lambda       -0.9418908E-03
   maximum displ.:     0.1555769 α      in ANC's #3, #1, #6, ...

........................................................................
.............................. CYCLE   16 ..............................
........................................................................

 iter      E             dE          RMSdq      gap      omega  full diag
   1    -32.0727209 -0.320727E+02  0.102E-01    3.62       0.0  T
   2    -32.0727302 -0.933284E-05  0.581E-02    3.62       1.0  T
   3    -32.0727281  0.209585E-05  0.271E-02    3.62       1.0  T
   4    -32.0727321 -0.404698E-05  0.634E-03    3.62       3.1  T
   5    -32.0727323 -0.212305E-06  0.391E-03    3.62       5.0  T
   6    -32.0727325 -0.174498E-06  0.128E-03    3.62      15.4  T
   7    -32.0727325 -0.294806E-08  0.348E-04    3.62      56.4  T
   8    -32.0727325 -0.682974E-09  0.135E-04    3.62     145.7  T
   9    -32.0727325 -0.107924E-09  0.521E-05    3.62     376.6  T
  10    -32.0727325 -0.331326E-10  0.264E-05    3.62     743.1  T
  11    -32.0727325 -0.216716E-11  0.701E-06    3.62    2797.7  T
  12    -32.0727325 -0.781597E-13  0.209E-06    3.62    9382.4  T
     SCC iter.                  ...        0 min,  0.075 sec
     gradient                   ...        0 min,  0.002 sec
 * total energy  :   -31.5514794 Eh     change       -0.4572171E-03 Eh
   gradient norm :     0.0092784 Eh/α   predicted    -0.5236829E-03 (  14.54%)
   displ. norm   :     0.5407294 α      lambda       -0.6746938E-03
   maximum displ.:     0.3148123 α      in ANC's #6, #3, #4, ...

........................................................................
.............................. CYCLE   17 ..............................
........................................................................

 iter      E             dE          RMSdq      gap      omega  full diag
   1    -32.0705516 -0.320706E+02  0.141E-01    3.64       0.0  T
   2    -32.0705548 -0.317619E-05  0.812E-02    3.64       1.0  T
   3    -32.0705545  0.266343E-06  0.140E-02    3.64       1.4  T
   4    -32.0705553 -0.819911E-06  0.404E-03    3.64       4.9  T
   5    -32.0705553  0.274931E-07  0.274E-03    3.64       7.1  T
   6    -32.0705554 -0.635959E-07  0.694E-04    3.64      28.3  T
   7    -32.0705554 -0.201619E-08  0.222E-04    3.64      88.2  T
   8    -32.0705554 -0.453085E-09  0.723E-05    3.64     271.3  T
   9    -32.0705554 -0.307523E-10  0.327E-05    3.64     600.1  T
  10    -32.0705554 -0.304823E-11  0.146E-05    3.64    1346.3  T
  11    -32.0705554 -0.267164E-11  0.532E-06    3.64    3688.8  T
  12    -32.0705554 -0.213163E-13  0.145E-06    3.64   13528.2  T
     SCC iter.                  ...        0 min,  0.075 sec
     gradient                   ...        0 min,  0.002 sec
 * total energy  :   -31.5518923 Eh     change       -0.4128863E-03 Eh
   gradient norm :     0.0105930 Eh/α   predicted    -0.4359829E-03 (   5.59%)
   displ. norm   :     0.2765532 α      lambda       -0.5428739E-03
   maximum displ.:     0.1607561 α      in ANC's #3, #6, #5, ...

........................................................................
.............................. CYCLE   18 ..............................
........................................................................

 iter      E             dE          RMSdq      gap      omega  full diag
   1    -32.0737216 -0.320737E+02  0.916E-02    3.63       0.0  T
   2    -32.0737264 -0.485783E-05  0.493E-02    3.63       1.0  T
   3    -32.0737262  0.220764E-06  0.192E-02    3.63       1.0  T
   4    -32.0737272 -0.100219E-05  0.330E-03    3.63       5.9  T
   5    -32.0737272 -0.618170E-08  0.193E-03    3.63      10.2  T
   6    -32.0737272 -0.152330E-07  0.570E-04    3.63      34.4  T
   7    -32.0737272 -0.188334E-08  0.205E-04    3.63      95.6  T
   8    -32.0737272 -0.133724E-09  0.674E-05    3.63     290.9  T
   9    -32.0737272 -0.154259E-10  0.313E-05    3.63     625.7  T
  10    -32.0737272 -0.123137E-10  0.923E-06    3.63    2125.2  T
  11    -32.0737272 -0.405009E-12  0.303E-06    3.63    6475.6  T
     SCC iter.                  ...        0 min,  0.075 sec
     gradient                   ...        0 min,  0.002 sec
 * total energy  :   -31.5521358 Eh     change       -0.2435032E-03 Eh
   gradient norm :     0.0109475 Eh/α   predicted    -0.2921976E-03 (  20.00%)
   displ. norm   :     0.4318547 α      lambda       -0.6029878E-03
   maximum displ.:     0.2458692 α      in ANC's #3, #5, #6, ...

........................................................................
.............................. CYCLE   19 ..............................
........................................................................

 iter      E             dE          RMSdq      gap      omega  full diag
   1    -32.0686073 -0.320686E+02  0.114E-01    3.61       0.0  T
   2    -32.0686120 -0.466753E-05  0.650E-02    3.61       1.0  T
   3    -32.0686116  0.366870E-06  0.167E-02    3.61       1.2  T
   4    -32.0686126 -0.987338E-06  0.414E-03    3.61       4.7  T
   5    -32.0686126 -0.274852E-07  0.266E-03    3.61       7.4  T
   6    -32.0686127 -0.674938E-07  0.103E-03    3.61      19.1  T
   7    -32.0686127 -0.350882E-08  0.272E-04    3.61      72.1  T
   8    -32.0686127 -0.432578E-09  0.886E-05    3.61     221.3  T
   9    -32.0686127 -0.261764E-10  0.540E-05    3.61     362.9  T
  10    -32.0686127 -0.209539E-10  0.206E-05    3.61     951.9  T
  11    -32.0686127 -0.152767E-11  0.470E-06    3.61    4169.2  T
  12    -32.0686127 -0.213163E-12  0.153E-06    3.61   12837.7  T
     SCC iter.                  ...        0 min,  0.075 sec
     gradient                   ...        0 min,  0.002 sec
 * total energy  :   -31.5523826 Eh     change       -0.2467695E-03 Eh
   gradient norm :     0.0113726 Eh/α   predicted    -0.3577239E-03 (  44.96%)
   displ. norm   :     0.2037377 α      lambda       -0.7117902E-03
   maximum displ.:     0.0906235 α      in ANC's #4, #5, #3, ...

........................................................................
.............................. CYCLE   20 ..............................
........................................................................

 iter      E             dE          RMSdq      gap      omega  full diag
   1    -32.0747197 -0.320747E+02  0.983E-02    3.61       0.0  T
   2    -32.0747289 -0.920538E-05  0.529E-02    3.61       1.0  T
   3    -32.0747290 -0.102817E-06  0.269E-02    3.61       1.0  T
   4    -32.0747303 -0.130810E-05  0.500E-03    3.61       3.9  T
   5    -32.0747303 -0.178038E-07  0.198E-03    3.61       9.9  T
   6    -32.0747303 -0.302295E-08  0.767E-04    3.61      25.6  T
   7    -32.0747303 -0.390195E-08  0.372E-04    3.61      52.8  T
   8    -32.0747303 -0.969763E-09  0.755E-05    3.61     259.8  T
   9    -32.0747303 -0.343192E-11  0.286E-05    3.61     685.6  T
  10    -32.0747303 -0.215934E-10  0.109E-05    3.61    1799.4  T
  11    -32.0747303 -0.490274E-12  0.289E-06    3.61    6793.2  T
  12    -32.0747303 -0.710543E-13  0.124E-06    3.61   15793.4  T
     SCC iter.                  ...        0 min,  0.075 sec
     gradient                   ...        0 min,  0.002 sec
 * total energy  :   -31.5525120 Eh     change       -0.1294240E-03 Eh
   gradient norm :     0.0145654 Eh/α   predicted    -0.3706684E-03 ( 186.40%)
   displ. norm   :     0.2432894 α      lambda       -0.5927366E-03
   maximum displ.:     0.1475812 α      in ANC's #3, #6, #47, ...
 * RMSD in coord.:     1.2350081 α      energy gain  -0.1313908E-01 Eh

generating ANC from model Hessian ...
Using Lindh-Hessian (1995)
 Shifting diagonal of input Hessian by   9.225877793631328E-003
 Lowest  eigenvalues of input Hessian
    0.000000    0.000000    0.000000    0.000000    0.000000    0.000000
    0.010000    0.010363    0.010533    0.011197    0.011989    0.012808
    0.015610    0.017631    0.017864    0.019392    0.020930    0.024496
 Highest eigenvalues
    1.366434    1.552602    1.581101    1.884564    1.993777    2.009269
 

........................................................................
.............................. CYCLE   21 ..............................
........................................................................

 iter      E             dE          RMSdq      gap      omega  full diag
   1    -32.0727540 -0.320728E+02  0.750E-02    3.62       0.0  T
   2    -32.0727571 -0.312420E-05  0.419E-02    3.62       1.0  T
   3    -32.0727571  0.612563E-07  0.131E-02    3.62       1.5  T
   4    -32.0727575 -0.436126E-06  0.332E-03    3.62       5.9  T
   5    -32.0727575 -0.195301E-07  0.176E-03    3.62      11.1  T
   6    -32.0727575 -0.350997E-07  0.814E-04    3.62      24.1  T
   7    -32.0727575 -0.206767E-08  0.242E-04    3.62      80.9  T
   8    -32.0727575 -0.451678E-09  0.640E-05    3.62     306.2  T
   9    -32.0727575 -0.620304E-11  0.278E-05    3.62     704.9  T
  10    -32.0727575 -0.541434E-11  0.968E-06    3.62    2026.4  T
  11    -32.0727575 -0.575540E-12  0.277E-06    3.62    7071.7  T
     SCC iter.                  ...        0 min,  0.074 sec
     gradient                   ...        0 min,  0.002 sec
 * total energy  :   -31.5528570 Eh     change       -0.3450064E-03 Eh
   gradient norm :     0.0083322 Eh/α   predicted     0.0000000E+00 (-100.00%)
   displ. norm   :     0.1077267 α      lambda       -0.2642115E-03
   maximum displ.:     0.0649749 α      in ANC's #1, #5, #2, ...

........................................................................
.............................. CYCLE   22 ..............................
........................................................................

 iter      E             dE          RMSdq      gap      omega  full diag
   1    -32.0733727 -0.320734E+02  0.484E-02    3.61       0.0  T
   2    -32.0733739 -0.114295E-05  0.284E-02    3.61       1.0  T
   3    -32.0733736  0.277138E-06  0.837E-03    3.61       2.3  T
   4    -32.0733740 -0.442886E-06  0.180E-03    3.61      10.9  T
   5    -32.0733740 -0.293433E-08  0.105E-03    3.61      18.7  T
   6    -32.0733740 -0.213762E-07  0.460E-04    3.61      42.7  T
   7    -32.0733740 -0.821586E-09  0.189E-04    3.61     104.0  T
   8    -32.0733740 -0.163354E-10  0.508E-05    3.61     386.1  T
   9    -32.0733740 -0.299920E-10  0.205E-05    3.61     954.3  T
  10    -32.0733740 -0.980549E-12  0.786E-06    3.61    2494.0  T
  11    -32.0733740 -0.376588E-12  0.295E-06    3.61    6640.6  T
     SCC iter.                  ...        0 min,  0.075 sec
     gradient                   ...        0 min,  0.002 sec
 * total energy  :   -31.5530625 Eh     change       -0.2055162E-03 Eh
   gradient norm :     0.0029136 Eh/α   predicted    -0.1336524E-03 ( -34.97%)
   displ. norm   :     0.2425294 α      lambda       -0.3161466E-03
   maximum displ.:     0.1463262 α      in ANC's #1, #5, #2, ...

........................................................................
.............................. CYCLE   23 ..............................
........................................................................

 iter      E             dE          RMSdq      gap      omega  full diag
   1    -32.0734549 -0.320735E+02  0.950E-02    3.60       0.0  T
   2    -32.0734562 -0.134804E-05  0.558E-02    3.60       1.0  T
   3    -32.0734554  0.864371E-06  0.970E-03    3.60       2.0  T
   4    -32.0734565 -0.107581E-05  0.258E-03    3.60       7.6  T
   5    -32.0734565 -0.745431E-07  0.124E-03    3.60      15.8  T
   6    -32.0734566 -0.290098E-07  0.521E-04    3.60      37.6  T
   7    -32.0734566 -0.469939E-09  0.178E-04    3.60     110.4  T
   8    -32.0734566 -0.972875E-10  0.527E-05    3.60     372.1  T
   9    -32.0734566 -0.350866E-10  0.221E-05    3.60     885.8  T
  10    -32.0734566 -0.117950E-11  0.524E-06    3.60    3744.9  T
  11    -32.0734566 -0.355271E-12  0.148E-06    3.60   13250.4  T
     SCC iter.                  ...        0 min,  0.074 sec
     gradient                   ...        0 min,  0.002 sec
 * total energy  :   -31.5533020 Eh     change       -0.2395261E-03 Eh
   gradient norm :     0.0043662 Eh/α   predicted    -0.1673823E-03 ( -30.12%)
   displ. norm   :     0.2906666 α      lambda       -0.2620156E-03
   maximum displ.:     0.1805831 α      in ANC's #1, #5, #2, ...

........................................................................
.............................. CYCLE   24 ..............................
........................................................................

 iter      E             dE          RMSdq      gap      omega  full diag
   1    -32.0725892 -0.320726E+02  0.110E-01    3.60       0.0  T
   2    -32.0725900 -0.827247E-06  0.644E-02    3.60       1.0  T
   3    -32.0725893  0.667027E-06  0.730E-03    3.60       2.7  T
   4    -32.0725901 -0.801639E-06  0.271E-03    3.60       7.2  T
   5    -32.0725902 -0.110930E-06  0.835E-04    3.60      23.5  T
   6    -32.0725902 -0.613586E-08  0.380E-04    3.60      51.6  T
   7    -32.0725902 -0.182105E-09  0.102E-04    3.60     192.1  T
   8    -32.0725902 -0.135678E-09  0.309E-05    3.60     635.5  T
   9    -32.0725902 -0.105871E-10  0.117E-05    3.60    1675.3  T
  10    -32.0725902 -0.137845E-11  0.412E-06    3.60    4765.5  T
  11    -32.0725902 -0.220268E-12  0.196E-06    3.60   10018.0  T
     SCC iter.                  ...        0 min,  0.074 sec
     gradient                   ...        0 min,  0.002 sec
 * total energy  :   -31.5535190 Eh     change       -0.2169347E-03 Eh
   gradient norm :     0.0067485 Eh/α   predicted    -0.1421010E-03 ( -34.50%)
   displ. norm   :     0.3515410 α      lambda       -0.2989883E-03
   maximum displ.:     0.2235168 α      in ANC's #1, #5, #2, ...

........................................................................
.............................. CYCLE   25 ..............................
........................................................................

 iter      E             dE          RMSdq      gap      omega  full diag
   1    -32.0716590 -0.320717E+02  0.131E-01    3.60       0.0  T
   2    -32.0716601 -0.106063E-05  0.760E-02    3.60       1.0  T
   3    -32.0716594  0.690917E-06  0.844E-03    3.60       2.3  T
   4    -32.0716603 -0.931376E-06  0.260E-03    3.60       7.5  T
   5    -32.0716604 -0.631884E-07  0.965E-04    3.60      20.3  T
   6    -32.0716604 -0.740157E-08  0.460E-04    3.60      42.6  T
   7    -32.0716604 -0.595293E-10  0.134E-04    3.60     146.8  T
   8    -32.0716604 -0.226791E-09  0.357E-05    3.60     549.5  T
   9    -32.0716604 -0.172662E-10  0.148E-05    3.60    1323.6  T
  10    -32.0716604 -0.128608E-11  0.471E-06    3.60    4161.2  T
  11    -32.0716604 -0.355271E-13  0.256E-06    3.60    7661.6  T
     SCC iter.                  ...        0 min,  0.077 sec
     gradient                   ...        0 min,  0.002 sec
 * total energy  :   -31.5537603 Eh     change       -0.2413005E-03 Eh
   gradient norm :     0.0062697 Eh/α   predicted    -0.1679699E-03 ( -30.39%)
   displ. norm   :     0.3401429 α      lambda       -0.2915797E-03
   maximum displ.:     0.2343089 α      in ANC's #1, #5, #2, ...

........................................................................
.............................. CYCLE   26 ..............................
........................................................................

 iter      E             dE          RMSdq      gap      omega  full diag
   1    -32.0721641 -0.320722E+02  0.127E-01    3.60       0.0  T
   2    -32.0721651 -0.105608E-05  0.743E-02    3.61       1.0  T
   3    -32.0721645  0.607850E-06  0.804E-03    3.61       2.4  T
   4    -32.0721654 -0.873699E-06  0.235E-03    3.61       8.3  T
   5    -32.0721654 -0.382405E-07  0.106E-03    3.61      18.6  T
   6    -32.0721655 -0.779352E-08  0.440E-04    3.61      44.6  T
   7    -32.0721655 -0.240497E-09  0.153E-04    3.61     128.2  T
   8    -32.0721655 -0.217668E-09  0.412E-05    3.61     476.1  T
   9    -32.0721655 -0.271427E-10  0.166E-05    3.61    1182.3  T
  10    -32.0721655 -0.112266E-11  0.543E-06    3.61    3612.8  T
  11    -32.0721655 -0.184741E-12  0.300E-06    3.61    6529.5  T
     SCC iter.                  ...        0 min,  0.074 sec
     gradient                   ...        0 min,  0.002 sec
 * total energy  :   -31.5539892 Eh     change       -0.2289297E-03 Eh
   gradient norm :     0.0036575 Eh/α   predicted    -0.1626627E-03 ( -28.95%)
   displ. norm   :     0.3089496 α      lambda       -0.2139606E-03
   maximum displ.:     0.2315002 α      in ANC's #1, #2, #5, ...

........................................................................
.............................. CYCLE   27 ..............................
........................................................................

 iter      E             dE          RMSdq      gap      omega  full diag
   1    -32.0736292 -0.320736E+02  0.115E-01    3.61       0.0  T
   2    -32.0736301 -0.969560E-06  0.671E-02    3.61       1.0  T
   3    -32.0736296  0.539460E-06  0.685E-03    3.61       2.9  T
   4    -32.0736303 -0.715209E-06  0.254E-03    3.61       7.7  T
   5    -32.0736304 -0.889363E-07  0.894E-04    3.61      21.9  T
   6    -32.0736304 -0.483128E-08  0.377E-04    3.61      52.0  T
   7    -32.0736304 -0.574047E-10  0.140E-04    3.61     140.1  T
   8    -32.0736304 -0.170388E-09  0.436E-05    3.61     450.2  T
   9    -32.0736304 -0.160654E-10  0.172E-05    3.61    1139.0  T
  10    -32.0736304 -0.241585E-11  0.574E-06    3.61    3418.3  T
  11    -32.0736304 -0.135003E-12  0.226E-06    3.61    8696.3  T
     SCC iter.                  ...        0 min,  0.074 sec
     gradient                   ...        0 min,  0.002 sec
 * total energy  :   -31.5541614 Eh     change       -0.1721777E-03 Eh
   gradient norm :     0.0032676 Eh/α   predicted    -0.1171954E-03 ( -31.93%)
   displ. norm   :     0.2808643 α      lambda       -0.1552810E-03
   maximum displ.:     0.2225700 α      in ANC's #1, #2, #5, ...

........................................................................
.............................. CYCLE   28 ..............................
........................................................................

 iter      E             dE          RMSdq      gap      omega  full diag
   1    -32.0743864 -0.320744E+02  0.104E-01    3.61       0.0  T
   2    -32.0743871 -0.669275E-06  0.610E-02    3.61       1.0  T
   3    -32.0743865  0.544834E-06  0.611E-03    3.61       3.2  T
   4    -32.0743872 -0.671808E-06  0.241E-03    3.61       8.1  T
   5    -32.0743873 -0.944492E-07  0.638E-04    3.61      30.7  T
   6    -32.0743873 -0.153422E-08  0.318E-04    3.61      61.7  T
   7    -32.0743873 -0.850733E-10  0.832E-05    3.61     235.9  T
   8    -32.0743873 -0.107406E-09  0.390E-05    3.61     502.9  T
   9    -32.0743873 -0.856915E-11  0.140E-05    3.61    1399.8  T
  10    -32.0743873 -0.137135E-11  0.402E-06    3.61    4882.7  T
  11    -32.0743873 -0.355271E-13  0.125E-06    3.61   15719.8  T
     SCC iter.                  ...        0 min,  0.074 sec
     gradient                   ...        0 min,  0.002 sec
 * total energy  :   -31.5542968 Eh     change       -0.1354114E-03 Eh
   gradient norm :     0.0033091 Eh/α   predicted    -0.8376911E-04 ( -38.14%)
   displ. norm   :     0.2168968 α      lambda       -0.1250565E-03
   maximum displ.:     0.1864490 α      in ANC's #1, #2, #5, ...

........................................................................
.............................. CYCLE   29 ..............................
........................................................................

 iter      E             dE          RMSdq      gap      omega  full diag
   1    -32.0757330 -0.320757E+02  0.809E-02    3.61       0.0  T
   2    -32.0757335 -0.514378E-06  0.474E-02    3.61       1.0  T
   3    -32.0757330  0.527864E-06  0.590E-03    3.61       3.3  T
   4    -32.0757336 -0.630510E-06  0.205E-03    3.61       9.6  T
   5    -32.0757337 -0.630610E-07  0.647E-04    3.61      30.3  T
   6    -32.0757337 -0.281005E-08  0.360E-04    3.61      54.5  T
   7    -32.0757337 -0.245741E-09  0.101E-04    3.61     194.8  T
   8    -32.0757337 -0.733991E-11  0.366E-05    3.61     535.6  T
   9    -32.0757337 -0.177778E-10  0.143E-05    3.61    1367.1  T
  10    -32.0757337 -0.132161E-11  0.406E-06    3.61    4833.2  T
  11    -32.0757337 -0.127898E-12  0.113E-06    3.61   17339.0  T
     SCC iter.                  ...        0 min,  0.074 sec
     gradient                   ...        0 min,  0.002 sec
 * total energy  :   -31.5544077 Eh     change       -0.1109083E-03 Eh
   gradient norm :     0.0027270 Eh/α   predicted    -0.6548566E-04 ( -40.96%)
   displ. norm   :     0.2032259 α      lambda       -0.1091148E-03
   maximum displ.:     0.1780103 α      in ANC's #1, #2, #5, ...

........................................................................
.............................. CYCLE   30 ..............................
........................................................................

 iter      E             dE          RMSdq      gap      omega  full diag
   1    -32.0755284 -0.320755E+02  0.751E-02    3.61       0.0  T
   2    -32.0755287 -0.361017E-06  0.438E-02    3.61       1.0  T
   3    -32.0755282  0.519795E-06  0.531E-03    3.61       3.7  T
   4    -32.0755288 -0.630446E-06  0.169E-03    3.61      11.6  T
   5    -32.0755289 -0.354904E-07  0.439E-04    3.61      44.6  T
   6    -32.0755289 -0.428372E-09  0.265E-04    3.61      73.9  T
   7    -32.0755289 -0.216197E-09  0.669E-05    3.61     293.1  T
   8    -32.0755289 -0.330402E-11  0.240E-05    3.61     816.6  T
   9    -32.0755289 -0.748202E-11  0.126E-05    3.61    1560.9  T
  10    -32.0755289 -0.987654E-12  0.262E-06    3.61    7487.5  T
  11    -32.0755289 -0.426326E-13  0.122E-06    3.61   16057.7  T
     SCC iter.                  ...        0 min,  0.074 sec
     gradient                   ...        0 min,  0.002 sec
 * total energy  :   -31.5545071 Eh     change       -0.9943559E-04 Eh
   gradient norm :     0.0016690 Eh/α   predicted    -0.5681095E-04 ( -42.87%)
   displ. norm   :     0.2264625 α      lambda       -0.8894420E-04
   maximum displ.:     0.2121871 α      in ANC's #1, #2, #5, ...

........................................................................
.............................. CYCLE   31 ..............................
........................................................................

 iter      E             dE          RMSdq      gap      omega  full diag
   1    -32.0763856 -0.320764E+02  0.829E-02    3.62       0.0  T
   2    -32.0763862 -0.530852E-06  0.485E-02    3.62       1.0  T
   3    -32.0763854  0.712240E-06  0.717E-03    3.62       2.7  T
   4    -32.0763863 -0.878787E-06  0.213E-03    3.62       9.2  T
   5    -32.0763864 -0.324128E-07  0.811E-04    3.62      24.2  T
   6    -32.0763864 -0.472771E-08  0.413E-04    3.62      47.5  T
   7    -32.0763864 -0.521354E-09  0.104E-04    3.62     189.1  T
   8    -32.0763864 -0.433857E-10  0.324E-05    3.62     606.2  T
   9    -32.0763864 -0.934364E-11  0.128E-05    3.62    1527.9  T
  10    -32.0763864 -0.753175E-12  0.431E-06    3.62    4548.0  T
  11    -32.0763864 -0.234479E-12  0.147E-06    3.62   13343.7  T
     SCC iter.                  ...        0 min,  0.075 sec
     gradient                   ...        0 min,  0.002 sec
 * total energy  :   -31.5546256 Eh     change       -0.1184177E-03 Eh
   gradient norm :     0.0025742 Eh/α   predicted    -0.4548932E-04 ( -61.59%)
   displ. norm   :     0.1423338 α      lambda       -0.8196812E-04
   maximum displ.:     0.1336862 α      in ANC's #1, #5, #2, ...

........................................................................
.............................. CYCLE   32 ..............................
........................................................................

 iter      E             dE          RMSdq      gap      omega  full diag
   1    -32.0760800 -0.320761E+02  0.521E-02    3.62       0.0  T
   2    -32.0760802 -0.179921E-06  0.304E-02    3.62       1.0  T
   3    -32.0760799  0.250227E-06  0.368E-03    3.62       5.3  T
   4    -32.0760802 -0.300403E-06  0.137E-03    3.62      14.3  T
   5    -32.0760803 -0.225437E-07  0.336E-04    3.62      58.3  T
   6    -32.0760803 -0.280913E-09  0.177E-04    3.62     110.7  T
   7    -32.0760803 -0.593232E-10  0.394E-05    3.62     497.9  T
   8    -32.0760803 -0.999734E-11  0.134E-05    3.62    1460.9  T
   9    -32.0760803 -0.200373E-11  0.587E-06    3.62    3340.9  T
  10    -32.0760803 -0.504485E-12  0.156E-06    3.62   12560.4  T
     SCC iter.                  ...        0 min,  0.074 sec
     gradient                   ...        0 min,  0.002 sec
 * total energy  :   -31.5547022 Eh     change       -0.7666031E-04 Eh
   gradient norm :     0.0021299 Eh/α   predicted    -0.4181923E-04 ( -45.45%)
   displ. norm   :     0.1361127 α      lambda       -0.7951828E-04
   maximum displ.:     0.1264247 α      in ANC's #1, #6, #4, ...

........................................................................
.............................. CYCLE   33 ..............................
........................................................................

 iter      E             dE          RMSdq      gap      omega  full diag
   1    -32.0760331 -0.320760E+02  0.477E-02    3.62       0.0  T
   2    -32.0760333 -0.137417E-06  0.278E-02    3.62       1.0  T
   3    -32.0760331  0.194910E-06  0.348E-03    3.62       5.6  T
   4    -32.0760333 -0.242325E-06  0.113E-03    3.62      17.3  T
   5    -32.0760333 -0.120506E-07  0.336E-04    3.62      58.3  T
   6    -32.0760333 -0.132516E-09  0.217E-04    3.62      90.5  T
   7    -32.0760333 -0.153790E-09  0.350E-05    3.62     559.8  T
   8    -32.0760333 -0.331823E-11  0.133E-05    3.62    1477.8  T
   9    -32.0760333 -0.143530E-11  0.562E-06    3.62    3491.6  T
  10    -32.0760333 -0.277112E-12  0.150E-06    3.62   13093.9  T
     SCC iter.                  ...        0 min,  0.073 sec
     gradient                   ...        0 min,  0.002 sec
 * total energy  :   -31.5547775 Eh     change       -0.7532588E-04 Eh
   gradient norm :     0.0017325 Eh/α   predicted    -0.4049598E-04 ( -46.24%)
   displ. norm   :     0.2416170 α      lambda       -0.8924620E-04
   maximum displ.:     0.2170110 α      in ANC's #1, #4, #6, ...

........................................................................
.............................. CYCLE   34 ..............................
........................................................................

 iter      E             dE          RMSdq      gap      omega  full diag
   1    -32.0757473 -0.320757E+02  0.841E-02    3.62       0.0  T
   2    -32.0757478 -0.423407E-06  0.492E-02    3.62       1.0  T
   3    -32.0757472  0.582648E-06  0.593E-03    3.62       3.3  T
   4    -32.0757479 -0.715789E-06  0.207E-03    3.63       9.5  T
   5    -32.0757479 -0.419733E-07  0.682E-04    3.62      28.7  T
   6    -32.0757479 -0.712234E-09  0.404E-04    3.62      48.6  T
   7    -32.0757479 -0.288587E-09  0.621E-05    3.62     315.8  T
   8    -32.0757479 -0.117168E-10  0.190E-05    3.62    1030.3  T
   9    -32.0757479 -0.255795E-11  0.893E-06    3.62    2196.5  T
  10    -32.0757479 -0.696332E-12  0.248E-06    3.62    7923.1  T
     SCC iter.                  ...        0 min,  0.076 sec
     gradient                   ...        0 min,  0.002 sec
 * total energy  :   -31.5548974 Eh     change       -0.1198661E-03 Eh
   gradient norm :     0.0013525 Eh/α   predicted    -0.4578125E-04 ( -61.81%)
   displ. norm   :     0.2621835 α      lambda       -0.8168533E-04
   maximum displ.:     0.2303047 α      in ANC's #1, #4, #6, ...

........................................................................
.............................. CYCLE   35 ..............................
........................................................................

 iter      E             dE          RMSdq      gap      omega  full diag
   1    -32.0754667 -0.320755E+02  0.893E-02    3.63       0.0  T
   2    -32.0754672 -0.532635E-06  0.523E-02    3.63       1.0  T
   3    -32.0754663  0.922769E-06  0.728E-03    3.63       2.7  T
   4    -32.0754674 -0.111697E-05  0.228E-03    3.63       8.6  T
   5    -32.0754674 -0.441763E-07  0.776E-04    3.63      25.3  T
   6    -32.0754674 -0.152301E-08  0.439E-04    3.63      44.6  T
   7    -32.0754674 -0.321464E-09  0.698E-05    3.63     281.1  T
   8    -32.0754674 -0.172733E-10  0.215E-05    3.63     913.7  T
   9    -32.0754674 -0.394351E-11  0.102E-05    3.63    1917.1  T
  10    -32.0754674 -0.102318E-11  0.259E-06    3.63    7570.8  T
  11    -32.0754674  0.000000E+00  0.895E-07    3.63   21908.9  T
     SCC iter.                  ...        0 min,  0.078 sec
     gradient                   ...        0 min,  0.002 sec
 * total energy  :   -31.5550021 Eh     change       -0.1046388E-03 Eh
   gradient norm :     0.0017659 Eh/α   predicted    -0.4209079E-04 ( -59.78%)
   displ. norm   :     0.2860478 α      lambda       -0.7791229E-04
   maximum displ.:     0.2488322 α      in ANC's #1, #4, #6, ...

........................................................................
.............................. CYCLE   36 ..............................
........................................................................

 iter      E             dE          RMSdq      gap      omega  full diag
   1    -32.0746917 -0.320747E+02  0.103E-01    3.63       0.0  T
   2    -32.0746925 -0.814801E-06  0.603E-02    3.63       1.0  T
   3    -32.0746914  0.110767E-05  0.799E-03    3.63       2.5  T
   4    -32.0746927 -0.129248E-05  0.284E-03    3.63       6.9  T
   5    -32.0746928 -0.989928E-07  0.860E-04    3.63      22.8  T
   6    -32.0746928 -0.259035E-08  0.509E-04    3.63      38.5  T
   7    -32.0746928 -0.555808E-09  0.118E-04    3.63     166.8  T
   8    -32.0746928 -0.333671E-10  0.258E-05    3.63     761.2  T
   9    -32.0746928 -0.660094E-11  0.108E-05    3.63    1820.4  T
  10    -32.0746928 -0.525802E-12  0.454E-06    3.63    4315.7  T
  11    -32.0746928 -0.163425E-12  0.151E-06    3.63   12960.8  T
     SCC iter.                  ...        0 min,  0.076 sec
     gradient                   ...        0 min,  0.002 sec
 * total energy  :   -31.5550873 Eh     change       -0.8524664E-04 Eh
   gradient norm :     0.0033855 Eh/α   predicted    -0.4037523E-04 ( -52.64%)
   displ. norm   :     0.2535793 α      lambda       -0.8546228E-04
   maximum displ.:     0.2226136 α      in ANC's #1, #4, #2, ...

........................................................................
.............................. CYCLE   37 ..............................
........................................................................

 iter      E             dE          RMSdq      gap      omega  full diag
   1    -32.0741915 -0.320742E+02  0.908E-02    3.63       0.0  T
   2    -32.0741921 -0.590627E-06  0.532E-02    3.64       1.0  T
   3    -32.0741912  0.956136E-06  0.743E-03    3.63       2.6  T
   4    -32.0741923 -0.114942E-05  0.230E-03    3.64       8.5  T
   5    -32.0741924 -0.579739E-07  0.771E-04    3.64      25.4  T
   6    -32.0741924 -0.203886E-08  0.414E-04    3.64      47.4  T
   7    -32.0741924 -0.188471E-09  0.713E-05    3.64     274.9  T
   8    -32.0741924 -0.379359E-10  0.273E-05    3.64     719.2  T
   9    -32.0741924 -0.790124E-11  0.117E-05    3.64    1681.5  T
  10    -32.0741924 -0.104450E-11  0.352E-06    3.64    5578.5  T
  11    -32.0741924  0.000000E+00  0.106E-06    3.64   18571.4  T
     SCC iter.                  ...        0 min,  0.094 sec
     gradient                   ...        0 min,  0.002 sec
 * total energy  :   -31.5551535 Eh     change       -0.6618858E-04 Eh
   gradient norm :     0.0027944 Eh/α   predicted    -0.4548143E-04 ( -31.29%)
   displ. norm   :     0.3548600 α      lambda       -0.9374876E-04
   maximum displ.:     0.3141839 α      in ANC's #1, #4, #2, ...

........................................................................
.............................. CYCLE   38 ..............................
........................................................................

 iter      E             dE          RMSdq      gap      omega  full diag
   1    -32.0739067 -0.320739E+02  0.129E-01    3.64       0.0  T
   2    -32.0739079 -0.120237E-05  0.758E-02    3.64       1.0  T
   3    -32.0739057  0.214765E-05  0.112E-02    3.64       1.7  T
   4    -32.0739083 -0.256835E-05  0.325E-03    3.64       6.0  T
   5    -32.0739084 -0.105653E-06  0.114E-03    3.64      17.2  T
   6    -32.0739084 -0.604154E-08  0.568E-04    3.64      34.5  T
   7    -32.0739084 -0.427413E-09  0.100E-04    3.64     195.4  T
   8    -32.0739084 -0.563602E-10  0.336E-05    3.64     582.9  T
   9    -32.0739084 -0.115179E-10  0.159E-05    3.64    1236.1  T
  10    -32.0739084 -0.184741E-11  0.506E-06    3.64    3874.2  T
  11    -32.0739084 -0.426326E-13  0.147E-06    3.64   13383.9  T
     SCC iter.                  ...        0 min,  0.082 sec
     gradient                   ...        0 min,  0.002 sec
 * total energy  :   -31.5552144 Eh     change       -0.6088308E-04 Eh
   gradient norm :     0.0031025 Eh/α   predicted    -0.5278091E-04 ( -13.31%)
   displ. norm   :     0.2031405 α      lambda       -0.6049547E-04
   maximum displ.:     0.1763531 α      in ANC's #1, #2, #4, ...

........................................................................
.............................. CYCLE   39 ..............................
........................................................................

 iter      E             dE          RMSdq      gap      omega  full diag
   1    -32.0751532 -0.320752E+02  0.779E-02    3.65       0.0  T
   2    -32.0751537 -0.445398E-06  0.456E-02    3.65       1.0  T
   3    -32.0751531  0.599238E-06  0.630E-03    3.65       3.1  T
   4    -32.0751538 -0.738854E-06  0.179E-03    3.65      10.9  T
   5    -32.0751538 -0.366327E-07  0.629E-04    3.65      31.2  T
   6    -32.0751539 -0.226878E-08  0.320E-04    3.65      61.2  T
   7    -32.0751539 -0.171376E-09  0.806E-05    3.65     243.4  T
   8    -32.0751539 -0.544134E-10  0.320E-05    3.65     612.7  T
   9    -32.0751539 -0.105089E-10  0.119E-05    3.65    1643.2  T
  10    -32.0751539 -0.660805E-12  0.370E-06    3.65    5307.0  T
  11    -32.0751539 -0.781597E-13  0.102E-06    3.65   19187.9  T
     SCC iter.                  ...        0 min,  0.080 sec
     gradient                   ...        0 min,  0.002 sec
 * total energy  :   -31.5552606 Eh     change       -0.4623907E-04 Eh
   gradient norm :     0.0023742 Eh/α   predicted    -0.3149647E-04 ( -31.88%)
   displ. norm   :     0.3222818 α      lambda       -0.1051015E-03
   maximum displ.:     0.2558947 α      in ANC's #1, #2, #44, ...

........................................................................
.............................. CYCLE   40 ..............................
........................................................................

 iter      E             dE          RMSdq      gap      omega  full diag
   1    -32.0770592 -0.320771E+02  0.126E-01    3.65       0.0  T
   2    -32.0770603 -0.111794E-05  0.737E-02    3.65       1.0  T
   3    -32.0770594  0.951704E-06  0.842E-03    3.65       2.3  T
   4    -32.0770606 -0.123613E-05  0.270E-03    3.65       7.3  T
   5    -32.0770607 -0.971053E-07  0.983E-04    3.65      20.0  T
   6    -32.0770607 -0.737197E-08  0.466E-04    3.65      42.1  T
   7    -32.0770607 -0.256428E-09  0.106E-04    3.65     184.7  T
   8    -32.0770607 -0.500293E-10  0.455E-05    3.65     430.6  T
   9    -32.0770607 -0.280806E-10  0.169E-05    3.65    1159.9  T
  10    -32.0770607 -0.105160E-11  0.660E-06    3.65    2970.1  T
  11    -32.0770607 -0.262901E-12  0.133E-06    3.65   14751.7  T
     SCC iter.                  ...        0 min,  0.085 sec
     gradient                   ...        0 min,  0.002 sec
 * total energy  :   -31.5553340 Eh     change       -0.7343328E-04 Eh
   gradient norm :     0.0032890 Eh/α   predicted    -0.5800983E-04 ( -21.00%)
   displ. norm   :     0.2662249 α      lambda       -0.1044571E-03
   maximum displ.:     0.1592046 α      in ANC's #2, #1, #3, ...

........................................................................
.............................. CYCLE   41 ..............................
........................................................................

 iter      E             dE          RMSdq      gap      omega  full diag
   1    -32.0782325 -0.320782E+02  0.995E-02    3.65       0.0  T
   2    -32.0782332 -0.654055E-06  0.583E-02    3.65       1.0  T
   3    -32.0782331  0.122384E-06  0.525E-03    3.65       3.7  T
   4    -32.0782334 -0.280604E-06  0.175E-03    3.65      11.2  T
   5    -32.0782334 -0.242442E-07  0.778E-04    3.65      25.2  T
   6    -32.0782334 -0.645660E-08  0.355E-04    3.65      55.2  T
   7    -32.0782334 -0.176662E-09  0.715E-05    3.65     274.4  T
   8    -32.0782334 -0.724398E-10  0.307E-05    3.65     638.0  T
   9    -32.0782334 -0.139195E-10  0.100E-05    3.65    1956.4  T
  10    -32.0782334 -0.994760E-13  0.482E-06    3.65    4067.3  T
  11    -32.0782334 -0.142109E-12  0.173E-06    3.65   11318.1  T
     SCC iter.                  ...        0 min,  0.086 sec
     gradient                   ...        0 min,  0.003 sec
 * total energy  :   -31.5554152 Eh     change       -0.8115653E-04 Eh
   gradient norm :     0.0041207 Eh/α   predicted    -0.5593093E-04 ( -31.08%)
   displ. norm   :     0.4809930 α      lambda       -0.1635184E-03
   maximum displ.:     0.2881647 α      in ANC's #2, #1, #3, ...

........................................................................
.............................. CYCLE   42 ..............................
........................................................................

 iter      E             dE          RMSdq      gap      omega  full diag
   1    -32.0762990 -0.320763E+02  0.174E-01    3.64       0.0  T
   2    -32.0763010 -0.196518E-05  0.102E-01    3.65       1.0  T
   3    -32.0763008  0.169236E-06  0.868E-03    3.65       2.3  T
   4    -32.0763015 -0.662075E-06  0.277E-03    3.65       7.1  T
   5    -32.0763015 -0.459293E-07  0.132E-03    3.65      14.8  T
   6    -32.0763016 -0.194084E-07  0.571E-04    3.65      34.3  T
   7    -32.0763016 -0.401855E-09  0.147E-04    3.65     133.7  T
   8    -32.0763016 -0.171497E-09  0.510E-05    3.65     384.8  T
   9    -32.0763016 -0.490843E-10  0.188E-05    3.65    1041.4  T
  10    -32.0763016 -0.135714E-11  0.503E-06    3.65    3896.7  T
  11    -32.0763016 -0.994760E-13  0.269E-06    3.65    7284.5  T
     SCC iter.                  ...        0 min,  0.085 sec
     gradient                   ...        0 min,  0.002 sec
 * total energy  :   -31.5555448 Eh     change       -0.1295920E-03 Eh
   gradient norm :     0.0042807 Eh/α   predicted    -0.1006770E-03 ( -22.31%)
   displ. norm   :     0.5279849 α      lambda       -0.1897369E-03
   maximum displ.:     0.3098992 α      in ANC's #2, #3, #5, ...
 * RMSD in coord.:     1.0235611 α      energy gain  -0.3032795E-02 Eh

generating ANC from model Hessian ...
Using Lindh-Hessian (1995)
 Shifting diagonal of input Hessian by   9.197382868049792E-003
 Lowest  eigenvalues of input Hessian
    0.000000    0.000000    0.000000    0.000000    0.000000    0.000000
    0.010000    0.010162    0.010561    0.011243    0.012034    0.012896
    0.015002    0.017576    0.018072    0.019385    0.023369    0.024277
 Highest eigenvalues
    1.365509    1.553594    1.578435    1.883114    1.989980    2.006996
 

........................................................................
.............................. CYCLE   43 ..............................
........................................................................

 iter      E             dE          RMSdq      gap      omega  full diag
   1    -32.0754513 -0.320755E+02  0.160E-01    3.65       0.0  T
   2    -32.0754542 -0.287672E-05  0.942E-02    3.65       1.0  T
   3    -32.0754535  0.713143E-06  0.977E-03    3.65       2.0  T
   4    -32.0754547 -0.125264E-05  0.289E-03    3.65       6.8  T
   5    -32.0754548 -0.769126E-07  0.130E-03    3.65      15.0  T
   6    -32.0754548 -0.152935E-07  0.568E-04    3.65      34.5  T
   7    -32.0754548 -0.162129E-08  0.232E-04    3.65      84.7  T
   8    -32.0754548 -0.155026E-09  0.692E-05    3.65     283.4  T
   9    -32.0754548 -0.207265E-10  0.270E-05    3.65     725.8  T
  10    -32.0754548 -0.902389E-12  0.960E-06    3.65    2043.1  T
  11    -32.0754548 -0.132161E-11  0.370E-06    3.65    5293.9  T
     SCC iter.                  ...        0 min,  0.081 sec
     gradient                   ...        0 min,  0.005 sec
 * total energy  :   -31.5556284 Eh     change       -0.8359848E-04 Eh
   gradient norm :     0.0061629 Eh/α   predicted     0.0000000E+00 (-100.00%)
   displ. norm   :     0.0419850 α      lambda       -0.1011712E-03
   maximum displ.:     0.0172388 α      in ANC's #1, #13, #16, ...

........................................................................
.............................. CYCLE   44 ..............................
........................................................................

 iter      E             dE          RMSdq      gap      omega  full diag
   1    -32.0767225 -0.320767E+02  0.293E-02    3.65       0.0  T
   2    -32.0767229 -0.414647E-06  0.173E-02    3.65       1.1  T
   3    -32.0767228  0.117521E-06  0.443E-03    3.65       4.4  T
   4    -32.0767229 -0.153414E-06  0.142E-03    3.65      13.8  T
   5    -32.0767229 -0.168051E-07  0.945E-04    3.65      20.8  T
   6    -32.0767229 -0.783989E-08  0.244E-04    3.65      80.4  T
   7    -32.0767229 -0.620012E-09  0.782E-05    3.65     250.8  T
   8    -32.0767229 -0.230145E-10  0.231E-05    3.65     849.9  T
   9    -32.0767229 -0.187583E-11  0.952E-06    3.65    2059.7  T
  10    -32.0767229 -0.454747E-12  0.244E-06    3.65    8033.1  T
     SCC iter.                  ...        0 min,  0.084 sec
     gradient                   ...        0 min,  0.002 sec
 * total energy  :   -31.5556932 Eh     change       -0.6480177E-04 Eh
   gradient norm :     0.0017737 Eh/α   predicted    -0.5073306E-04 ( -21.71%)
   displ. norm   :     0.0670039 α      lambda       -0.2540559E-04
   maximum displ.:     0.0416798 α      in ANC's #1, #4, #3, ...

........................................................................
.............................. CYCLE   45 ..............................
........................................................................

 iter      E             dE          RMSdq      gap      omega  full diag
   1    -32.0774486 -0.320774E+02  0.268E-02    3.65       0.0  T
   2    -32.0774488 -0.215694E-06  0.159E-02    3.65       1.2  T
   3    -32.0774487  0.950075E-07  0.347E-03    3.65       5.7  T
   4    -32.0774488 -0.112438E-06  0.102E-03    3.65      19.2  T
   5    -32.0774489 -0.186579E-07  0.464E-04    3.65      42.3  T
   6    -32.0774489 -0.176924E-08  0.147E-04    3.65     133.2  T
   7    -32.0774489 -0.109296E-09  0.587E-05    3.65     334.0  T
   8    -32.0774489 -0.103171E-10  0.157E-05    3.65    1247.4  T
   9    -32.0774489 -0.169109E-11  0.637E-06    3.65    3079.8  T
  10    -32.0774489 -0.923706E-13  0.223E-06    3.65    8791.9  T
     SCC iter.                  ...        0 min,  0.078 sec
     gradient                   ...        0 min,  0.002 sec
 * total energy  :   -31.5557129 Eh     change       -0.1970899E-04 Eh
   gradient norm :     0.0017252 Eh/α   predicted    -0.1273055E-04 ( -35.41%)
   displ. norm   :     0.0528799 α      lambda       -0.1106536E-04
   maximum displ.:     0.0378416 α      in ANC's #1, #4, #3, ...

........................................................................
.............................. CYCLE   46 ..............................
........................................................................

[...]

           ------------------------------------------------- 
          |                Numerical Hessian                |
           ------------------------------------------------- 
step length          :   0.00500
SCC accuracy         :   0.30000
Hessian scale factor :   1.00000
frozen atoms in %    :   0.00000    0
RMS gradient         :   0.00004
estimated CPU  time      1.13 min
estimated wall time      0.14 min

writing file <hessian>.

 projected vibrational frequencies (cm⁻¹)
eigval :       -0.00    -0.00    -0.00     0.00     0.00     0.00
eigval :       28.01    69.18    80.21   127.11   129.06   199.41
eigval :      204.08   227.68   261.09   277.01   284.04   356.41
eigval :      363.06   407.21   472.71   586.00   638.44   657.16
eigval :      683.04   704.76   729.28   746.99   791.36   871.27
eigval :      894.61   925.17   931.22   968.65   974.24   998.57
eigval :     1012.26  1021.84  1065.58  1072.78  1085.77  1115.66
eigval :     1123.17  1181.84  1203.16  1225.68  1227.99  1250.79
eigval :     1266.83  1282.14  1316.99  1408.47  1410.72  1421.74
eigval :     1451.04  1454.60  1461.89  1497.33  1500.90  1504.74
eigval :     1508.60  1577.57  1589.13  2939.05  2942.41  2949.68
eigval :     2960.43  3011.44  3013.27  3023.86  3024.83  3034.06
eigval :     3039.03  3057.93  3068.30  3074.72  3087.06  3094.15
           -------------------------------------------------
          |                Property Printout                |
           -------------------------------------------------

    * Orbital Energies and Occupations

         #    Occupation            Energy/Eh            Energy/eV
      -------------------------------------------------------------
         1        2.0000           -0.6587441             -17.9253
       ...           ...                  ...                  ...
        18        2.0000           -0.4770809             -12.9820
        19        2.0000           -0.4740356             -12.8992
        20        2.0000           -0.4689864             -12.7618
        21        2.0000           -0.4616070             -12.5610
        22        2.0000           -0.4527185             -12.3191
        23        2.0000           -0.4451202             -12.1123
        24        2.0000           -0.4393162             -11.9544
        25        2.0000           -0.4246342             -11.5549
        26        2.0000           -0.4144552             -11.2779
        27        2.0000           -0.4077331             -11.0950
        28        2.0000           -0.4028448             -10.9620
        29        2.0000           -0.4006478             -10.9022
        30        2.0000           -0.3636014              -9.8941 (HOMO)
        31                         -0.2298820              -6.2554 (LUMO)
        32                         -0.2215529              -6.0288
        33                         -0.1542898              -4.1984
        34                         -0.1500285              -4.0825
        35                         -0.0933548              -2.5403
        36                          0.0100321               0.2730
        37                          0.0445645               1.2127
        38                          0.1067930               2.9060
        39                          0.1119854               3.0473
        40                          0.1163896               3.1671
        41                          0.1321693               3.5965
       ...                                ...                  ...
        64                          0.8000524              21.7705
      -------------------------------------------------------------
                  HL-Gap            0.1337194 Eh            3.6387 eV
             Fermi-level           -0.2967417 Eh           -8.0748 eV

     #   Z          covCN         q      C6AA      α(0)
     1  15 P        3.021    -0.113   165.383    23.103
     2   6 C        3.748    -0.045    21.449     6.606
     3   1 H        0.925     0.047     2.362     2.403
     4   1 H        0.926     0.041     2.440     2.443
     5   6 C        3.819    -0.097    22.332     6.725
     6   1 H        0.925     0.037     2.489     2.467
     7   1 H        0.925     0.041     2.431     2.438
     8   1 H        0.925     0.032     2.556     2.500
     9   6 C        2.915     0.010    27.790     8.645
    10   6 C        3.023    -0.030    28.725     8.791
    11   6 C        2.960    -0.033    28.832     8.807
    12   6 C        2.918    -0.030    28.753     8.793
    13   6 C        2.919    -0.031    28.768     8.796
    14   6 C        2.920    -0.031    28.776     8.797
    15   1 H        0.925     0.034     2.531     2.488
    16   1 H        0.926     0.033     2.549     2.497
    17   1 H        0.926     0.029     2.603     2.523
    18   1 H        0.926     0.028     2.618     2.530
    19   1 H        0.926     0.028     2.611     2.527
    20   6 C        3.748    -0.044    21.427     6.602
    21   1 H        0.926     0.041     2.439     2.442
    22   1 H        0.926     0.042     2.423     2.434
    23   6 C        3.780    -0.094    22.320     6.730
    24   1 H        0.925     0.038     2.479     2.462
    25   1 H        0.925     0.037     2.483     2.464
    26   1 H        0.925     0.032     2.560     2.502

 Mol. C6AA /au·bohr⁶  :       7600.995721
 Mol. C8AA /au·bohr⁸  :     202605.474492
 Mol. α(0) /au        :        139.515965


Wiberg/Mayer (AO) data.
largest (>0.10) Wiberg bond orders for each atom

 ---------------------------------------------------------------------------
     #   Z sym  total        # sym  WBO       # sym  WBO       # sym  WBO
 ---------------------------------------------------------------------------
     1  15 P    3.377 --     2 C    1.028     9 C    1.019    20 C    1.014
     2   6 C    3.995 --     1 P    1.028     5 C    1.015     4 H    0.956
                             3 H    0.951
     3   1 H    0.998 --     2 C    0.951
     4   1 H    0.998 --     2 C    0.956
     5   6 C    3.996 --     2 C    1.015     8 H    0.985     7 H    0.984
                             6 H    0.984
     6   1 H    0.999 --     5 C    0.984
     7   1 H    0.998 --     5 C    0.984
     8   1 H    0.999 --     5 C    0.985
     9   6 C    3.982 --    11 C    1.402    10 C    1.390     1 P    1.019
                            14 C    0.106
    10   6 C    3.992 --    12 C    1.457     9 C    1.390    15 H    0.962
                            13 C    0.110
    11   6 C    3.993 --    13 C    1.440     9 C    1.402    16 H    0.963
                            12 C    0.107
    12   6 C    3.992 --    10 C    1.457    14 C    1.428    17 H    0.970
                            11 C    0.107
    13   6 C    3.993 --    14 C    1.442    11 C    1.440    18 H    0.970
                            10 C    0.110
    14   6 C    3.992 --    13 C    1.442    12 C    1.428    19 H    0.971
                             9 C    0.106
    15   1 H    0.999 --    10 C    0.962
    16   1 H    0.999 --    11 C    0.963
    17   1 H    0.999 --    12 C    0.970
    18   1 H    0.999 --    13 C    0.970
    19   1 H    0.998 --    14 C    0.971
    20   6 C    3.994 --     1 P    1.014    23 C    1.012    21 H    0.956
                            22 H    0.954
    21   1 H    0.998 --    20 C    0.956
    22   1 H    0.998 --    20 C    0.954
    23   6 C    3.997 --    20 C    1.012    24 H    0.984    25 H    0.983
                            26 H    0.983
    24   1 H    0.999 --    23 C    0.984
    25   1 H    0.999 --    23 C    0.983
    26   1 H    0.999 --    23 C    0.983
 ---------------------------------------------------------------------------

Topologies differ in total number of bonds
Writing topology from bond orders to xtbtopo.mol

molecular dipole:
                 x           y           z       tot (Debye)
 q only:        0.193       0.256       0.136
   full:        0.136       0.602       0.243       1.686
molecular quadrupole (traceless):
                xx          xy          yy          xz          yz          zz
 q only:        1.842       0.486      -1.526      -0.808      -2.377      -0.317
  q+dip:        3.302      -0.027      -4.962      -0.123      -5.429       1.660
   full:        3.316       1.481      -3.627       0.038      -5.828       0.310

           -------------------------------------------------
          |                Geometry Summary                 |
           -------------------------------------------------

      molecular mass/u    :      166.2002322
   center of mass at/Å    :        0.4556230       0.3113715      -2.7801580
  moments of inertia/u·Å² :        0.2862414E+03   0.8256360E+03   0.9280337E+03
rotational constants/cm⁻¹ :        0.5889305E-01   0.2041775E-01   0.1816489E-01

 * 24 selected distances

     #   Z          #   Z                                           value/Å
     1  15 P        2   6 C                                       1.8643891 (max)
     2   6 C        3   1 H                                       1.0924079
     2   6 C        4   1 H                                       1.0940569
     2   6 C        5   6 C                                       1.5234637
     5   6 C        6   1 H                                       1.0877946
     5   6 C        7   1 H                                       1.0884940
     5   6 C        8   1 H                                       1.0890219
     9   6 C       10   6 C                                       1.3938353
     9   6 C       11   6 C                                       1.3896951
    10   6 C       12   6 C                                       1.3809344
    11   6 C       13   6 C                                       1.3845958
    12   6 C       14   6 C                                       1.3856236
    13   6 C       14   6 C                                       1.3835632
    10   6 C       15   1 H                                       1.0817260
    11   6 C       16   1 H                                       1.0792796 (min)
    12   6 C       17   1 H                                       1.0806263
    13   6 C       18   1 H                                       1.0808651
    14   6 C       19   1 H                                       1.0801528
    20   6 C       21   1 H                                       1.0934495
    20   6 C       22   1 H                                       1.0935105
    20   6 C       23   6 C                                       1.5222173
    23   6 C       24   1 H                                       1.0872294
    23   6 C       25   1 H                                       1.0887988
    23   6 C       26   1 H                                       1.0891383

 * 3 distinct bonds (by element types)

   Z      Z             #   av. dist./Å        max./Å        min./Å
   1 H    6 C          15     1.0871034     1.0940569     1.0792796
   6 C    6 C           8     1.4204911     1.5234637     1.3809344
   6 C   15 P           1     1.8643891     1.8643891     1.8643891

           -------------------------------------------------
          |               Frequency Printout                |
           -------------------------------------------------
 projected vibrational frequencies (cm⁻¹)
eigval :       -0.00    -0.00    -0.00     0.00     0.00     0.00
eigval :       28.01    69.18    80.21   127.11   129.06   199.41
eigval :      204.08   227.68   261.09   277.01   284.04   356.41
eigval :      363.06   407.21   472.71   586.00   638.44   657.16
eigval :      683.04   704.76   729.28   746.99   791.36   871.27
eigval :      894.61   925.17   931.22   968.65   974.24   998.57
eigval :     1012.26  1021.84  1065.58  1072.78  1085.77  1115.66
eigval :     1123.17  1181.84  1203.16  1225.68  1227.99  1250.79
eigval :     1266.83  1282.14  1316.99  1408.47  1410.72  1421.74
eigval :     1451.04  1454.60  1461.89  1497.33  1500.90  1504.74
eigval :     1508.60  1577.57  1589.13  2939.05  2942.41  2949.68
eigval :     2960.43  3011.44  3013.27  3023.86  3024.83  3034.06
eigval :     3039.03  3057.93  3068.30  3074.72  3087.06  3094.15
 reduced masses (amu)
   1: 12.53   2: 15.86   3: 12.94   4: 12.38   5: 14.27   6:  9.68   7:  9.94   8:  9.05
   9:  9.70  10:  5.94  11: 11.22  12:  7.25  13:  3.48  14:  9.51  15:  6.46  16:  9.89
  17: 11.22  18: 13.75  19:  9.08  20: 19.03  21: 13.15  22: 11.18  23: 13.87  24: 10.49
  25: 12.58  26: 15.62  27:  4.48  28:  5.42  29:  4.05  30:  3.33  31:  3.58  32:  4.15
  33:  2.98  34: 10.13  35:  3.64  36:  3.15  37:  3.72  38:  3.91  39:  9.51  40:  9.32
  41:  8.36  42:  8.49  43:  4.43  44:  1.30  45:  1.99  46:  3.62  47:  3.30  48:  4.18
  49:  4.15  50:  3.36  51: 11.92  52:  2.92  53:  2.96  54:  8.59  55:  4.41  56:  2.45
  57:  5.31  58:  1.55  59:  1.54  60:  1.54  61:  1.56  62: 11.43  63: 11.44  64:  1.97
  65:  1.97  66:  1.50  67:  1.49  68:  1.87  69:  1.87  70:  1.72  71:  1.88  72:  1.41
  73:  1.55  74:  1.79  75:  1.77  76:  1.83  77:  1.88  78:  1.86
 IR intensities (km·mol⁻¹)
   1:  0.04   2:  0.08   3:  0.00   4:  0.05   5:  0.08   6:  0.21   7:  0.12   8:  0.04
   9:  0.21  10:  0.36  11:  0.07  12:  0.06  13:  0.08  14:  0.15  15:  0.07  16:  0.26
  17:  0.45  18:  0.42  19:  0.04  20:  1.54  21:  4.67  22:  0.05  23: 10.38  24:  2.92
  25:  0.21  26: 25.56  27: 35.06  28: 19.58  29: 20.28  30:  0.23  31:  0.02  32:  0.05
  33:  0.00  34:  1.90  35:  1.35  36:  2.32  37:  2.17  38:  8.66  39: 10.13  40:  7.08
  41:  0.03  42:  1.20  43:  0.22  44:  0.04  45:  0.87  46:  2.04  47:  3.84  48:  3.84
  49:  5.50  50:  0.42  51:  0.40  52:  1.57  53:  1.74  54:  0.79  55:  1.16  56:  0.85
  57:  0.15  58:  3.92  59:  0.64  60:  1.18  61:  1.03  62:  0.49  63:  5.21  64: 22.79
  65: 22.06  66:  9.39  67: 20.11  68: 48.83  69: 50.29  70: 25.77  71: 29.02  72: 24.89
  73: 21.73  74: 14.89  75:  5.78  76: 51.87  77: 77.52  78: 26.90
 Raman intensities (Ä⁴*amu⁻¹)
   1:  0.00   2:  0.00   3:  0.00   4:  0.00   5:  0.00   6:  0.00   7:  0.00   8:  0.00
   9:  0.00  10:  0.00  11:  0.00  12:  0.00  13:  0.00  14:  0.00  15:  0.00  16:  0.00
  17:  0.00  18:  0.00  19:  0.00  20:  0.00  21:  0.00  22:  0.00  23:  0.00  24:  0.00
  25:  0.00  26:  0.00  27:  0.00  28:  0.00  29:  0.00  30:  0.00  31:  0.00  32:  0.00
  33:  0.00  34:  0.00  35:  0.00  36:  0.00  37:  0.00  38:  0.00  39:  0.00  40:  0.00
  41:  0.00  42:  0.00  43:  0.00  44:  0.00  45:  0.00  46:  0.00  47:  0.00  48:  0.00
  49:  0.00  50:  0.00  51:  0.00  52:  0.00  53:  0.00  54:  0.00  55:  0.00  56:  0.00
  57:  0.00  58:  0.00  59:  0.00  60:  0.00  61:  0.00  62:  0.00  63:  0.00  64:  0.00
  65:  0.00  66:  0.00  67:  0.00  68:  0.00  69:  0.00  70:  0.00  71:  0.00  72:  0.00
  73:  0.00  74:  0.00  75:  0.00  76:  0.00  77:  0.00  78:  0.00
 output can be read by thermo (or use thermo option).
 writing <g98.out> molden fake output.
 recommended (thermochemical) frequency scaling factor: 1.0
           -------------------------------------------------
          |             Thermodynamic Functions             |
           -------------------------------------------------

Refinement of some symmetry elements was terminated before convergence was reached.
Some symmetry elements may remain unidentified.
Molecule has no symmetry elements
It seems to be the C1 point group
c1  symmetry found (for desy threshold:  0.10E+00) used in thermo

          ...................................................
          :                      SETUP                      :
          :.................................................:
          :  # frequencies                          72      :
          :  # imaginary freq.                       0      :
          :  linear?                             false      :
          :  only rotor calc.                    false      :
          :  symmetry                               c1      :
          :  rotational number                       1      :
          :  scaling factor                  1.0000000      :
          :  rotor cutoff                   50.0000000 cm⁻¹ :
          :  imag. cutoff                  -20.0000000 cm⁻¹ :
          :.................................................:

    mode    ω/cm⁻¹     T·S(HO)/kcal·mol⁻¹    T·S(FR)/kcal·mol⁻¹   T·S(vib)
   ------------------------------------------------------------------------
       1     28.01    -1.77869 (  8.96%)    -1.22798 ( 91.04%)    -1.27733
       2     69.18    -1.24526 ( 78.56%)    -0.96027 ( 21.44%)    -1.18416
       3     80.21    -1.15856 ( 86.88%)    -0.91647 ( 13.12%)    -1.12680
       4    127.11    -0.89126 ( 97.66%)    -0.78009 (  2.34%)    -0.88866
       5    129.06    -0.88251 ( 97.80%)    -0.77557 (  2.20%)    -0.88015
       6    199.41    -0.63760 ( 99.61%)    -0.64671 (  0.39%)    -0.63764
       7    204.08    -0.62491 ( 99.64%)    -0.63985 (  0.36%)    -0.62496
       8    227.68    -0.56565 ( 99.77%)    -0.60744 (  0.23%)    -0.56574
       9    261.09    -0.49328 ( 99.87%)    -0.56688 (  0.13%)    -0.49338
      10    277.01    -0.46274 ( 99.89%)    -0.54935 (  0.11%)    -0.46283
      11    284.04    -0.44998 ( 99.90%)    -0.54193 (  0.10%)    -0.45006
   ------------------------------------------------------------------------

   temp. (K)  partition function   enthalpy   heat capacity  entropy
                                   cal/mol     cal/K/mol   cal/K/mol   J/K/mol
 298.15  VIB  0.120E+05             6096.308     39.510     37.111
         ROT  0.113E+07              888.752      2.981     30.681
         INT  0.136E+11             6985.060     42.491     67.792
         TR   0.207E+28             1481.254      4.968     41.214
         TOT                        8466.3142    47.4590   109.0060   456.0810

       T/K    H(0)-H(T)+PV         H(T)/Eh          T*S/Eh         G(T)/Eh
   ------------------------------------------------------------------------
    298.15    0.134919E-01    0.232530E+00    0.517923E-01    0.180737E+00
   ------------------------------------------------------------------------

         :::::::::::::::::::::::::::::::::::::::::::::::::::::
         ::                  THERMODYNAMIC                  ::
         :::::::::::::::::::::::::::::::::::::::::::::::::::::
         :: total free energy         -31.375186568322 Eh   ::
         ::.................................................::
         :: total energy              -31.555923986704 Eh   ::
         :: zero point energy           0.219037741245 Eh   ::
         :: G(RRHO) w/o ZPVE           -0.038300322863 Eh   ::
         :: G(RRHO) contrib.            0.180737418382 Eh   ::
         :::::::::::::::::::::::::::::::::::::::::::::::::::::

optimized geometry written to: xtbopt.xyz


           -------------------------------------------------
          | TOTAL ENERGY              -31.555923986704 Eh   |
          | TOTAL ENTHALPY            -31.323394315036 Eh   |
          | TOTAL FREE ENERGY         -31.375186568322 Eh   |
          | GRADIENT NORM               0.000040882679 Eh/α |
          | HOMO-LUMO GAP               3.638690101777 eV   |
           -------------------------------------------------

------------------------------------------------------------------------
 * finished run on 2025/07/14 at 11:33:19.645     
------------------------------------------------------------------------
 total:
 * wall-time:     0 d,  0 h,  0 min, 10.886 sec
 *  cpu-time:     0 d,  0 h,  1 min, 55.540 sec
 * ratio c/w:    10.614 speedup
 SCF:
 * wall-time:     0 d,  0 h,  0 min,  0.088 sec
 *  cpu-time:     0 d,  0 h,  0 min,  0.964 sec
 * ratio c/w:    10.978 speedup
 ANC optimizer:
 * wall-time:     0 d,  0 h,  0 min,  7.509 sec
 *  cpu-time:     0 d,  0 h,  1 min, 28.762 sec
 * ratio c/w:    11.821 speedup
 analytical hessian:
 * wall-time:     0 d,  0 h,  0 min,  3.279 sec
 *  cpu-time:     0 d,  0 h,  0 min, 25.711 sec
 * ratio c/w:     7.841 speedup

