      -----------------------------------------------------------      
     |                   =====================                   |     
     |                           x T B                           |     
     |                   =====================                   |     
     |                         S. Grimme                         |     
     |          Mulliken Center for Theoretical Chemistry        |     
     |                    University of Bonn                     |     
      -----------------------------------------------------------      

   * xtb version 6.7.0 (08769fc) compiled by 'albert@albert-system' on 2024-03-04

   xtb is free software: you can redistribute it and/or modify it under
   the terms of the GNU Lesser General Public License as published by
   the Free Software Foundation, either version 3 of the License, or
   (at your option) any later version.
   
   xtb is distributed in the hope that it will be useful,
   but WITHOUT ANY WARRANTY; without even the implied warranty of
   MERCHANTABILITY or FITNESS FOR A PARTICULAR PURPOSE.  See the
   GNU Lesser General Public License for more details.
   
   Cite this work as:
   * C. Bannwarth, E. Caldeweyher, S. Ehlert, A. Hansen, P. Pracht,
     J. Seibert, S. Spicher, S. Grimme, WIREs Comput. Mol. Sci., 2020, 11,
     e01493. DOI: 10.1002/wcms.1493
   
   for GFN2-xTB:
   * C. Bannwarth, S. Ehlert and S. Grimme., J. Chem. Theory Comput., 2019,
     15, 1652-1671. DOI: 10.1021/acs.jctc.8b01176
   for GFN1-xTB:
   * S. Grimme, C. Bannwarth, P. Shushkov, J. Chem. Theory Comput., 2017,
     13, 1989-2009. DOI: 10.1021/acs.jctc.7b00118
   for GFN0-xTB:
   * P. Pracht, E. Caldeweyher, S. Ehlert, S. Grimme, ChemRxiv, 2019, preprint.
     DOI: 10.26434/chemrxiv.8326202.v1
   for GFN-FF:
   * S. Spicher and S. Grimme, Angew. Chem. Int. Ed., 2020, 59, 15665-15673.
     DOI: 10.1002/anie.202004239
   
   for ALPB and GBSA implicit solvation:
   * S. Ehlert, M. Stahn, S. Spicher, S. Grimme, J. Chem. Theory Comput.,
     2021, 17, 4250-4261. DOI: 10.1021/acs.jctc.1c00471
   
   for ddCOSMO and CPCM-X implicit solvation:
   * M. Stahn, S. Ehlert, S. Grimme, J. Phys. Chem. A,
     2023, XX, XXXX-XXXX. DOI: 10.1021/acs.jpca.3c04382
   
   for DFT-D4:
   * E. Caldeweyher, C. Bannwarth and S. Grimme, J. Chem. Phys., 2017,
     147, 034112. DOI: 10.1063/1.4993215
   * E. Caldeweyher, S. Ehlert, A. Hansen, H. Neugebauer, S. Spicher,
     C. Bannwarth and S. Grimme, J. Chem. Phys., 2019, 150, 154122.
     DOI: 10.1063/1.5090222
   * E. Caldeweyher, J.-M. Mewes, S. Ehlert and S. Grimme, Phys. Chem. Chem. Phys.
     2020, 22, 8499-8512. DOI: 10.1039/D0CP00502A
   
   for sTDA-xTB:
   * S. Grimme and C. Bannwarth, J. Chem. Phys., 2016, 145, 054103.
     DOI: 10.1063/1.4959605
   
   in the mass-spec context:
   * V. Asgeirsson, C. Bauer and S. Grimme, Chem. Sci., 2017, 8, 4879.
     DOI: 10.1039/c7sc00601b
   * J. Koopman and S. Grimme, ACS Omega 2019, 4, 12, 15120-15133.
     DOI: 10.1021/acsomega.9b02011
   
   for metadynamics refer to:
   * S. Grimme, J. Chem. Theory Comput., 2019, 155, 2847-2862
     DOI: 10.1021/acs.jctc.9b00143
   
   for SPH calculations refer to:
   * S. Spicher and S. Grimme, J. Chem. Theory Comput., 2021, 17, 1701-1714
     DOI: 10.1021/acs.jctc.0c01306
   
   for ONIOM refer to:
   * C. Plett, A. Katbashev, S. Ehlert, S. Grimme, M. Bursch,
     Phys. Chem. Chem. Phys., 2023, 25, 17860-17868. DOI: 10.1039/D3CP02178E
   
   for DIPRO refer to:
   * J. Kohn, N. Gildemeister, S. Grimme, D. Fazzi, A. Hansen,
     J. Chem. Phys., 2023, just accepted.
   
   for PTB refer to:
   * S. Grimme, M. Mueller, A. Hansen, J. Chem. Phys., 2023, 158, 124111.
     DOI: 10.1063/5.0137838
   
   with help from (in alphabetical order)
   P. Atkinson, C. Bannwarth, F. Bohle, G. Brandenburg, E. Caldeweyher
   M. Checinski, S. Dohm, S. Ehlert, S. Ehrlich, I. Gerasimov, C. Hölzer
   A. Katbashev, J. Kohn, J. Koopman, C. Lavigne, S. Lehtola, F. März, M. Müller,
   F. Musil, H. Neugebauer, J. Pisarek, C. Plett, P. Pracht, F. Pultar,
   J. Seibert, P. Shushkov, S. Spicher, M. Stahn, M. Steiner, T. Strunk,
   J. Stückrath, T. Rose, and J. Unsleber
   
 * started run on 2025/07/14 at 11:38:42.304     
   ID    Z sym.   atoms
    1   15 P      1
    2    6 C      2, 5, 9-14, 20, 23
    3    1 H      3, 4, 6-8, 15-19, 21, 22, 24-26

           -------------------------------------------------
          |                Calculation Setup                |
           -------------------------------------------------

          program call               : /home/minenky/programs/xtb/xtb-dist/bin/xtb m1_00_PEt2Ph-PBE0-D3-TZ-uniMM_74.xyz --charge 0 --T --ohess extreme --cycles 5000 --acc 0.01 --iterations 5000
          coordinate file            : m1_00_PEt2Ph-PBE0-D3-TZ-uniMM_74.xyz
          omp threads                :                    12

########################################################################
[WARNING] Please study the warnings concerning your input carefully
-1- prog_main_parseArguments: Unknown option '--T' provided
########################################################################

           -------------------------------------------------
          |                 G F N 2 - x T B                 |
           -------------------------------------------------

        Reference                      10.1021/acs.jctc.8b01176
      * Hamiltonian:
        H0-scaling (s, p, d)           1.850000    2.230000    2.230000
        zeta-weighting                 0.500000
      * Dispersion:
        s8                             2.700000
        a1                             0.520000
        a2                             5.000000
        s9                             5.000000
      * Repulsion:
        kExp                           1.500000    1.000000
        rExp                           1.000000
      * Coulomb:
        alpha                          2.000000
        third order                    shell-resolved
        anisotropic                    true
        a3                             3.000000
        a5                             4.000000
        cn-shift                       1.200000
        cn-exp                         4.000000
        max-rad                        5.000000


          ...................................................
          :                      SETUP                      :
          :.................................................:
          :  # basis functions                  65          :
          :  # atomic orbitals                  64          :
          :  # shells                           38          :
          :  # electrons                        60          :
          :  max. iterations                  5000          :
          :  Hamiltonian                  GFN2-xTB          :
          :  restarted?                      false          :
          :  GBSA solvation                  false          :
          :  PC potential                    false          :
          :  electronic temp.          300.0000000     K    :
          :  accuracy                    0.0100000          :
          :  -> integral cutoff          0.4500000E+02      :
          :  -> integral neglect         0.1000000E-09      :
          :  -> SCF convergence          0.1000000E-07 Eh   :
          :  -> wf. convergence          0.1000000E-05 e    :
          :  Broyden damping             0.4000000          :
          :  net charge                          0          :
          :  unpaired electrons                  0          :
          ...................................................

 iter      E             dE          RMSdq      gap      omega  full diag
   1    -31.9906391 -0.319906E+02  0.343E+00    4.00       0.0  T
   2    -32.0325525 -0.419135E-01  0.203E+00    3.49       1.0  T
   3    -32.0326220 -0.694496E-04  0.859E-01    3.20       1.0  T
   4    -32.0333743 -0.752295E-03  0.288E-01    3.23       1.0  T
   5    -32.0346899 -0.131558E-02  0.110E-01    3.26       1.0  T
   6    -32.0348717 -0.181863E-03  0.398E-02    3.25       1.0  T
   7    -32.0348875 -0.158047E-04  0.170E-02    3.26       1.2  T
   8    -32.0348889 -0.137074E-05  0.721E-03    3.26       2.7  T
   9    -32.0348895 -0.598297E-06  0.155E-03    3.26      12.6  T
  10    -32.0348896 -0.454101E-07  0.561E-04    3.26      34.9  T
  11    -32.0348896 -0.233276E-08  0.265E-04    3.26      74.0  T
  12    -32.0348896 -0.318792E-09  0.486E-05    3.26     403.1  T
  13    -32.0348896 -0.411404E-11  0.166E-05    3.26    1182.2  T
  14    -32.0348896 -0.110134E-11  0.773E-06    3.26    2538.5  T
  15    -32.0348896 -0.433431E-12  0.230E-06    3.26    8527.3  T

   *** convergence criteria satisfied after 15 iterations ***

         #    Occupation            Energy/Eh            Energy/eV
      -------------------------------------------------------------
         1        2.0000           -0.6608545             -17.9828
       ...           ...                  ...                  ...
        24        2.0000           -0.4398157             -11.9680
        25        2.0000           -0.4224442             -11.4953
        26        2.0000           -0.4174745             -11.3601
        27        2.0000           -0.4031909             -10.9714
        28        2.0000           -0.3997923             -10.8789
        29        2.0000           -0.3959951             -10.7756
        30        2.0000           -0.3542438              -9.6395 (HOMO)
        31                         -0.2345178              -6.3816 (LUMO)
        32                         -0.2222778              -6.0485
        33                         -0.1510237              -4.1096
        34                         -0.1397281              -3.8022
        35                         -0.0912553              -2.4832
       ...                                ...                  ...
        64                          0.7707652              20.9736
      -------------------------------------------------------------
                  HL-Gap            0.1197260 Eh            3.2579 eV
             Fermi-level           -0.2943808 Eh           -8.0105 eV

 SCC (total)                   0 d,  0 h,  0 min,  0.087 sec
 SCC setup                      ...        0 min,  0.000 sec (  0.149%)
 Dispersion                     ...        0 min,  0.000 sec (  0.142%)
 classical contributions        ...        0 min,  0.000 sec (  0.011%)
 integral evaluation            ...        0 min,  0.002 sec (  2.121%)
 iterations                     ...        0 min,  0.083 sec ( 95.446%)
 molecular gradient             ...        0 min,  0.002 sec (  2.023%)
 printout                       ...        0 min,  0.000 sec (  0.090%)

         :::::::::::::::::::::::::::::::::::::::::::::::::::::
         ::                     SUMMARY                     ::
         :::::::::::::::::::::::::::::::::::::::::::::::::::::
         :: total energy             -31.519328318260 Eh    ::
         :: gradient norm              0.058631520907 Eh/a0 ::
         :: HOMO-LUMO gap              3.257909725154 eV    ::
         ::.................................................::
         :: SCC energy               -32.034616221043 Eh    ::
         :: -> isotropic ES            0.004725593424 Eh    ::
         :: -> anisotropic ES          0.005662058594 Eh    ::
         :: -> anisotropic XC          0.022691763723 Eh    ::
         :: -> dispersion             -0.025745894430 Eh    ::
         :: repulsion energy           0.515287902783 Eh    ::
         :: add. restraining           0.000000000000 Eh    ::
         :: total charge               0.000000000000 e     ::
         :::::::::::::::::::::::::::::::::::::::::::::::::::::

      ----------------------------------------------------------- 
     |                   =====================                   |
     |                        A N C O P T                        |
     |                   =====================                   |
     |               Approximate Normal Coordinate               |
     |                Rational Function Optimizer                |
      ----------------------------------------------------------- 
      ----------------------------------------------------------- 
     |                   =====================                   |
     |                        A N C O P T                        |
     |                   =====================                   |
     |               Approximate Normal Coordinate               |
     |                Rational Function Optimizer                |
      ----------------------------------------------------------- 

          ...................................................
          :                      SETUP                      :
          :.................................................:
          :   optimization level           extreme          :
          :   max. optcycles                  5000          :
          :   ANC micro-cycles                  20          :
          :   degrees of freedom                72          :
          :.................................................:
          :   RF solver                   davidson          :
          :   write xtbopt.log                true          :
          :   linear?                        false          :
          :   energy convergence         0.5000000E-07 Eh   :
          :   grad. convergence          0.5000000E-04 Eh/α :
          :   maxmium RF displ.          1.0000000          :
          :   Hlow (freq-cutoff)         0.1000000E-01      :
          :   Hmax (freq-cutoff)         5.0000000          :
          :   S6 in model hess.         20.0000000          :
          ...................................................

generating ANC from model Hessian ...
Using Lindh-Hessian (1995)
 Shifting diagonal of input Hessian by   9.104319870253060E-003
 Lowest  eigenvalues of input Hessian
    0.000000    0.000000    0.000000    0.000000    0.000000    0.000000
    0.010000    0.010304    0.010716    0.011112    0.013177    0.013240
    0.016887    0.018813    0.019946    0.021333    0.023128    0.024397
 Highest eigenvalues
    1.347675    1.535437    1.562452    1.864029    1.965956    1.986399
 

........................................................................
.............................. CYCLE    1 ..............................
........................................................................

 iter      E             dE          RMSdq      gap      omega  full diag
   1    -32.0348896 -0.320349E+02  0.134E-06    3.26       0.0  T
   2    -32.0348896  0.213163E-13  0.683E-07    3.26   28717.3  T
   3    -32.0348896  0.284217E-13  0.501E-07    3.26   39177.8  T
     SCC iter.                  ...        0 min,  0.073 sec
     gradient                   ...        0 min,  0.002 sec
 * total energy  :   -31.5193283 Eh     change       -0.1421085E-13 Eh
   gradient norm :     0.0586315 Eh/α   predicted     0.0000000E+00 (-100.00%)
   displ. norm   :     0.6565413 α      lambda       -0.2392873E-01
   maximum displ.:     0.3196579 α      in ANC's #6, #5, #4, ...

........................................................................
.............................. CYCLE    2 ..............................
........................................................................

 iter      E             dE          RMSdq      gap      omega  full diag
   1    -32.0559560 -0.320560E+02  0.448E-01    3.46       0.0  T
   2    -32.0562605 -0.304452E-03  0.210E-01    3.50       1.0  T
   3    -32.0562755 -0.149781E-04  0.809E-02    3.54       1.0  T
   4    -32.0562872 -0.117809E-04  0.405E-02    3.54       1.0  T
   5    -32.0563063 -0.190016E-04  0.118E-02    3.54       1.7  T
   6    -32.0563083 -0.203382E-05  0.470E-03    3.54       4.2  T
   7    -32.0563083 -0.458861E-07  0.200E-03    3.54       9.8  T
   8    -32.0563084 -0.375336E-07  0.614E-04    3.54      31.9  T
   9    -32.0563084 -0.247353E-08  0.244E-04    3.54      80.4  T
  10    -32.0563084 -0.408704E-09  0.799E-05    3.54     245.6  T
  11    -32.0563084 -0.165343E-10  0.275E-05    3.54     712.5  T
  12    -32.0563084 -0.324718E-11  0.130E-05    3.54    1509.4  T
  13    -32.0563084 -0.397904E-12  0.471E-06    3.54    4162.2  T
  14    -32.0563084 -0.639488E-13  0.107E-06    3.54   18410.2  T
     SCC iter.                  ...        0 min,  0.076 sec
     gradient                   ...        0 min,  0.002 sec
 * total energy  :   -31.5347640 Eh     change       -0.1543572E-01 Eh
   gradient norm :     0.0221943 Eh/α   predicted    -0.1712158E-01 (  10.92%)
   displ. norm   :     0.6152207 α      lambda       -0.8993635E-02
   maximum displ.:     0.3075398 α      in ANC's #6, #4, #5, ...

........................................................................
.............................. CYCLE    3 ..............................
........................................................................

 iter      E             dE          RMSdq      gap      omega  full diag
   1    -32.0611764 -0.320612E+02  0.201E-01    3.52       0.0  T
   2    -32.0612085 -0.320356E-04  0.115E-01    3.51       1.0  T
   3    -32.0611999  0.856052E-05  0.320E-02    3.52       1.0  T
   4    -32.0612126 -0.127291E-04  0.110E-02    3.51       1.8  T
   5    -32.0612146 -0.192384E-05  0.353E-03    3.51       5.6  T
   6    -32.0612146 -0.688381E-07  0.158E-03    3.51      12.4  T
   7    -32.0612146 -0.779675E-08  0.583E-04    3.51      33.6  T
   8    -32.0612146 -0.386883E-09  0.230E-04    3.51      85.3  T
   9    -32.0612146 -0.358334E-09  0.928E-05    3.51     211.4  T
  10    -32.0612146 -0.566516E-10  0.435E-05    3.51     451.1  T
  11    -32.0612146 -0.198810E-10  0.157E-05    3.51    1250.2  T
  12    -32.0612146 -0.247269E-11  0.586E-06    3.51    3344.8  T
  13    -32.0612146  0.426326E-13  0.196E-06    3.51   10008.5  T
     SCC iter.                  ...        0 min,  0.076 sec
     gradient                   ...        0 min,  0.002 sec
 * total energy  :   -31.5413992 Eh     change       -0.6635208E-02 Eh
   gradient norm :     0.0129908 Eh/α   predicted    -0.6198854E-02 (  -6.58%)
   displ. norm   :     0.6053161 α      lambda       -0.5197837E-02
   maximum displ.:     0.2693545 α      in ANC's #6, #5, #4, ...

........................................................................
.............................. CYCLE    4 ..............................
........................................................................

 iter      E             dE          RMSdq      gap      omega  full diag
   1    -32.0598089 -0.320598E+02  0.155E-01    3.50       0.0  T
   2    -32.0598291 -0.201953E-04  0.909E-02    3.49       1.0  T
   3    -32.0598264  0.270984E-05  0.226E-02    3.49       1.0  T
   4    -32.0598311 -0.464950E-05  0.950E-03    3.49       2.1  T
   5    -32.0598323 -0.128436E-05  0.312E-03    3.49       6.3  T
   6    -32.0598324 -0.108365E-06  0.142E-03    3.49      13.8  T
   7    -32.0598325 -0.669083E-08  0.617E-04    3.49      31.8  T
   8    -32.0598325 -0.607699E-09  0.244E-04    3.49      80.3  T
   9    -32.0598325 -0.132785E-08  0.903E-05    3.49     217.3  T
  10    -32.0598325 -0.330402E-10  0.319E-05    3.49     614.6  T
  11    -32.0598325 -0.260059E-11  0.123E-05    3.49    1598.5  T
  12    -32.0598325 -0.114397E-11  0.554E-06    3.49    3542.7  T
  13    -32.0598325 -0.781597E-13  0.182E-06    3.49   10755.7  T
     SCC iter.                  ...        0 min,  0.086 sec
     gradient                   ...        0 min,  0.002 sec
 * total energy  :   -31.5451886 Eh     change       -0.3789313E-02 Eh
   gradient norm :     0.0119310 Eh/α   predicted    -0.3551292E-02 (  -6.28%)
   displ. norm   :     0.5294481 α      lambda       -0.2714250E-02
   maximum displ.:     0.2771207 α      in ANC's #4, #5, #8, ...

........................................................................
.............................. CYCLE    5 ..............................
........................................................................

 iter      E             dE          RMSdq      gap      omega  full diag
   1    -32.0619144 -0.320619E+02  0.124E-01    3.50       0.0  T
   2    -32.0619254 -0.109384E-04  0.692E-02    3.50       1.0  T
   3    -32.0619231  0.224841E-05  0.219E-02    3.51       1.0  T
   4    -32.0619267 -0.358338E-05  0.775E-03    3.51       2.5  T
   5    -32.0619275 -0.805067E-06  0.269E-03    3.51       7.3  T
   6    -32.0619276 -0.100484E-06  0.136E-03    3.51      14.5  T
   7    -32.0619276 -0.694964E-08  0.414E-04    3.51      47.3  T
   8    -32.0619276 -0.245983E-09  0.188E-04    3.51     104.4  T
   9    -32.0619276 -0.466386E-09  0.645E-05    3.51     304.0  T
  10    -32.0619276 -0.284004E-10  0.294E-05    3.51     666.4  T
  11    -32.0619276 -0.237321E-11  0.110E-05    3.51    1790.7  T
  12    -32.0619276 -0.483169E-12  0.369E-06    3.51    5310.8  T
  13    -32.0619276  0.284217E-13  0.172E-06    3.51   11423.9  T
     SCC iter.                  ...        0 min,  0.076 sec
     gradient                   ...        0 min,  0.002 sec
 * total energy  :   -31.5471861 Eh     change       -0.1997511E-02 Eh
   gradient norm :     0.0097257 Eh/α   predicted    -0.1737550E-02 ( -13.01%)
   displ. norm   :     0.4825095 α      lambda       -0.1492650E-02
   maximum displ.:     0.2679698 α      in ANC's #4, #5, #8, ...

........................................................................
.............................. CYCLE    6 ..............................
........................................................................

 iter      E             dE          RMSdq      gap      omega  full diag
   1    -32.0638205 -0.320638E+02  0.107E-01    3.48       0.0  T
   2    -32.0638267 -0.612311E-05  0.599E-02    3.48       1.0  T
   3    -32.0638253  0.136306E-05  0.175E-02    3.48       1.1  T
   4    -32.0638273 -0.202602E-05  0.563E-03    3.48       3.5  T
   5    -32.0638277 -0.380174E-06  0.203E-03    3.48       9.7  T
   6    -32.0638278 -0.523212E-07  0.107E-03    3.48      18.3  T
   7    -32.0638278 -0.795879E-08  0.266E-04    3.48      73.6  T
   8    -32.0638278 -0.536716E-09  0.139E-04    3.48     140.7  T
   9    -32.0638278 -0.153193E-09  0.503E-05    3.48     390.1  T
  10    -32.0638278 -0.722622E-11  0.172E-05    3.48    1140.2  T
  11    -32.0638278 -0.182609E-11  0.719E-06    3.48    2728.0  T
  12    -32.0638278 -0.994760E-13  0.327E-06    3.48    5997.6  T
     SCC iter.                  ...        0 min,  0.075 sec
     gradient                   ...        0 min,  0.002 sec
 * total energy  :   -31.5483024 Eh     change       -0.1116326E-02 Eh
   gradient norm :     0.0078226 Eh/α   predicted    -0.9200812E-03 ( -17.58%)
   displ. norm   :     0.4510434 α      lambda       -0.9712685E-03
   maximum displ.:     0.2598538 α      in ANC's #4, #5, #8, ...

........................................................................
.............................. CYCLE    7 ..............................
........................................................................

 iter      E             dE          RMSdq      gap      omega  full diag
   1    -32.0655402 -0.320655E+02  0.108E-01    3.49       0.0  T
   2    -32.0655464 -0.619290E-05  0.618E-02    3.49       1.0  T
   3    -32.0655448  0.157034E-05  0.177E-02    3.50       1.1  T
   4    -32.0655470 -0.218329E-05  0.610E-03    3.50       3.2  T
   5    -32.0655474 -0.400776E-06  0.220E-03    3.50       8.9  T
   6    -32.0655475 -0.845760E-07  0.936E-04    3.50      20.9  T
   7    -32.0655475 -0.469344E-08  0.297E-04    3.50      66.0  T
   8    -32.0655475 -0.718082E-09  0.110E-04    3.50     178.8  T
   9    -32.0655475 -0.104933E-09  0.435E-05    3.50     450.4  T
  10    -32.0655475 -0.716938E-11  0.165E-05    3.50    1187.9  T
  11    -32.0655475 -0.930811E-12  0.720E-06    3.50    2722.4  T
  12    -32.0655475 -0.994760E-13  0.223E-06    3.50    8785.7  T
     SCC iter.                  ...        0 min,  0.075 sec
     gradient                   ...        0 min,  0.002 sec
 * total energy  :   -31.5490426 Eh     change       -0.7401806E-03 Eh
   gradient norm :     0.0077452 Eh/α   predicted    -0.5844380E-03 ( -21.04%)
   displ. norm   :     0.4487840 α      lambda       -0.8026101E-03
   maximum displ.:     0.2586328 α      in ANC's #4, #8, #5, ...

........................................................................
.............................. CYCLE    8 ..............................
........................................................................

 iter      E             dE          RMSdq      gap      omega  full diag
   1    -32.0680615 -0.320681E+02  0.107E-01    3.49       0.0  T
   2    -32.0680677 -0.619222E-05  0.656E-02    3.49       1.0  T
   3    -32.0680666  0.104038E-05  0.158E-02    3.49       1.2  T
   4    -32.0680683 -0.168184E-05  0.584E-03    3.49       3.4  T
   5    -32.0680685 -0.196088E-06  0.208E-03    3.49       9.4  T
   6    -32.0680686 -0.827848E-07  0.924E-04    3.49      21.2  T
   7    -32.0680686 -0.439779E-08  0.269E-04    3.49      73.0  T
   8    -32.0680686 -0.597829E-09  0.882E-05    3.49     222.5  T
   9    -32.0680686 -0.624212E-10  0.369E-05    3.49     531.4  T
  10    -32.0680686 -0.599698E-11  0.129E-05    3.49    1517.7  T
  11    -32.0680686 -0.852651E-12  0.497E-06    3.49    3948.8  T
  12    -32.0680686  0.000000E+00  0.179E-06    3.49   10945.7  T
     SCC iter.                  ...        0 min,  0.081 sec
     gradient                   ...        0 min,  0.002 sec
 * total energy  :   -31.5496614 Eh     change       -0.6188426E-03 Eh
   gradient norm :     0.0096202 Eh/α   predicted    -0.4821310E-03 ( -22.09%)
   displ. norm   :     0.4463579 α      lambda       -0.7691641E-03
   maximum displ.:     0.2418542 α      in ANC's #4, #6, #3, ...

........................................................................
.............................. CYCLE    9 ..............................
........................................................................

 iter      E             dE          RMSdq      gap      omega  full diag
   1    -32.0697564 -0.320698E+02  0.120E-01    3.51       0.0  T
   2    -32.0697614 -0.505268E-05  0.731E-02    3.51       1.0  T
   3    -32.0697608  0.594714E-06  0.120E-02    3.51       1.6  T
   4    -32.0697619 -0.107579E-05  0.559E-03    3.52       3.5  T
   5    -32.0697620 -0.122820E-06  0.166E-03    3.52      11.8  T
   6    -32.0697621 -0.355949E-07  0.814E-04    3.51      24.1  T
   7    -32.0697621 -0.452952E-08  0.231E-04    3.51      85.0  T
   8    -32.0697621 -0.424684E-09  0.656E-05    3.51     299.1  T
   9    -32.0697621 -0.504912E-10  0.269E-05    3.51     730.4  T
  10    -32.0697621 -0.257927E-11  0.102E-05    3.51    1921.0  T
  11    -32.0697621 -0.831335E-12  0.326E-06    3.51    6014.2  T
  12    -32.0697621  0.710543E-14  0.123E-06    3.51   15997.1  T
     SCC iter.                  ...        0 min,  0.079 sec
     gradient                   ...        0 min,  0.002 sec
 * total energy  :   -31.5502762 Eh     change       -0.6148198E-03 Eh
   gradient norm :     0.0107284 Eh/α   predicted    -0.4612057E-03 ( -24.99%)
   displ. norm   :     0.4855011 α      lambda       -0.9183374E-03
   maximum displ.:     0.2747703 α      in ANC's #6, #4, #3, ...

........................................................................
.............................. CYCLE   10 ..............................
........................................................................

 iter      E             dE          RMSdq      gap      omega  full diag
   1    -32.0723055 -0.320723E+02  0.142E-01    3.53       0.0  T
   2    -32.0723106 -0.514675E-05  0.863E-02    3.53       1.0  T
   3    -32.0723100  0.618848E-06  0.114E-02    3.53       1.7  T
   4    -32.0723111 -0.112557E-05  0.531E-03    3.53       3.7  T
   5    -32.0723113 -0.124060E-06  0.191E-03    3.53      10.3  T
   6    -32.0723113 -0.366137E-07  0.878E-04    3.53      22.3  T
   7    -32.0723113 -0.206356E-08  0.233E-04    3.53      84.3  T
   8    -32.0723113 -0.600899E-09  0.552E-05    3.53     355.3  T
   9    -32.0723113 -0.399680E-10  0.240E-05    3.53     818.8  T
  10    -32.0723113 -0.460432E-11  0.115E-05    3.53    1706.3  T
  11    -32.0723113 -0.852651E-12  0.438E-06    3.53    4478.9  T
  12    -32.0723113 -0.426326E-13  0.130E-06    3.53   15113.1  T
     SCC iter.                  ...        0 min,  0.077 sec
     gradient                   ...        0 min,  0.002 sec
 * total energy  :   -31.5510238 Eh     change       -0.7475920E-03 Eh
   gradient norm :     0.0107494 Eh/α   predicted    -0.5674005E-03 ( -24.10%)
   displ. norm   :     0.5797153 α      lambda       -0.1049660E-02
   maximum displ.:     0.3332613 α      in ANC's #6, #4, #3, ...

........................................................................
.............................. CYCLE   11 ..............................
........................................................................

 iter      E             dE          RMSdq      gap      omega  full diag
   1    -32.0696154 -0.320696E+02  0.173E-01    3.56       0.0  T
   2    -32.0696255 -0.100619E-04  0.985E-02    3.57       1.0  T
   3    -32.0696248  0.673327E-06  0.189E-02    3.57       1.0  T
   4    -32.0696260 -0.119017E-05  0.825E-03    3.57       2.4  T
   5    -32.0696265 -0.537010E-06  0.291E-03    3.57       6.7  T
   6    -32.0696266 -0.112796E-06  0.129E-03    3.57      15.2  T
   7    -32.0696266 -0.747520E-08  0.336E-04    3.57      58.4  T
   8    -32.0696266 -0.409614E-09  0.817E-05    3.57     240.0  T
   9    -32.0696266 -0.488498E-10  0.411E-05    3.57     477.4  T
  10    -32.0696266 -0.134150E-10  0.143E-05    3.57    1371.0  T
  11    -32.0696266 -0.135003E-11  0.689E-06    3.57    2844.4  T
  12    -32.0696266 -0.781597E-13  0.209E-06    3.57    9372.9  T
     SCC iter.                  ...        0 min,  0.078 sec
     gradient                   ...        0 min,  0.002 sec
 * total energy  :   -31.5518500 Eh     change       -0.8261300E-03 Eh
   gradient norm :     0.0114255 Eh/α   predicted    -0.7012172E-03 ( -15.12%)
   displ. norm   :     0.5637421 α      lambda       -0.1586343E-02
   maximum displ.:     0.3071216 α      in ANC's #6, #1, #8, ...

........................................................................
.............................. CYCLE   12 ..............................
........................................................................

 iter      E             dE          RMSdq      gap      omega  full diag
   1    -32.0756681 -0.320757E+02  0.225E-01    3.59       0.0  T
   2    -32.0756834 -0.152200E-04  0.118E-01    3.59       1.0  T
   3    -32.0756799  0.349765E-05  0.464E-02    3.59       1.0  T
   4    -32.0756860 -0.611844E-05  0.105E-02    3.59       1.9  T
   5    -32.0756857  0.280794E-06  0.642E-03    3.59       3.1  T
   6    -32.0756862 -0.504789E-06  0.223E-03    3.59       8.8  T
   7    -32.0756862 -0.104831E-07  0.515E-04    3.59      38.1  T
   8    -32.0756862 -0.390301E-09  0.149E-04    3.59     131.6  T
   9    -32.0756862 -0.557563E-10  0.749E-05    3.59     261.8  T
  10    -32.0756862 -0.159801E-10  0.257E-05    3.59     762.9  T
  11    -32.0756862 -0.505906E-11  0.920E-06    3.59    2131.4  T
  12    -32.0756862 -0.554223E-12  0.367E-06    3.59    5341.1  T
     SCC iter.                  ...        0 min,  0.078 sec
     gradient                   ...        0 min,  0.002 sec
 * total energy  :   -31.5521213 Eh     change       -0.2713397E-03 Eh
   gradient norm :     0.0194870 Eh/α   predicted    -0.1045254E-02 ( 285.22%)
   displ. norm   :     0.5063624 α      lambda       -0.1852343E-02
   maximum displ.:     0.3107624 α      in ANC's #4, #6, #3, ...

........................................................................
.............................. CYCLE   13 ..............................
........................................................................

 iter      E             dE          RMSdq      gap      omega  full diag
   1    -32.0660127 -0.320660E+02  0.164E-01    3.59       0.0  T
   2    -32.0660447 -0.319278E-04  0.877E-02    3.60       1.0  T
   3    -32.0660467 -0.200833E-05  0.481E-02    3.59       1.0  T
   4    -32.0660492 -0.256422E-05  0.121E-02    3.59       1.6  T
   5    -32.0660492  0.761624E-07  0.670E-03    3.59       2.9  T
   6    -32.0660493 -0.136393E-06  0.239E-03    3.59       8.2  T
   7    -32.0660493 -0.295316E-07  0.946E-04    3.59      20.7  T
   8    -32.0660493 -0.218821E-08  0.180E-04    3.59     109.0  T
   9    -32.0660493 -0.169415E-09  0.824E-05    3.59     237.9  T
  10    -32.0660493 -0.155183E-10  0.295E-05    3.59     664.6  T
  11    -32.0660493 -0.100187E-10  0.877E-06    3.59    2237.4  T
  12    -32.0660493 -0.355271E-13  0.290E-06    3.59    6773.0  T
     SCC iter.                  ...        0 min,  0.077 sec
     gradient                   ...        0 min,  0.002 sec
 * total energy  :   -31.5528766 Eh     change       -0.7552876E-03 Eh
   gradient norm :     0.0152594 Eh/α   predicted    -0.1163645E-02 (  54.07%)
   displ. norm   :     0.1872076 α      lambda       -0.6002748E-03
   maximum displ.:     0.1485808 α      in ANC's #6, #3, #10, ...

........................................................................
.............................. CYCLE   14 ..............................
........................................................................

 iter      E             dE          RMSdq      gap      omega  full diag
   1    -32.0725530 -0.320726E+02  0.770E-02    3.59       0.0  T
   2    -32.0725592 -0.615935E-05  0.453E-02    3.58       1.0  T
   3    -32.0725591  0.439346E-07  0.173E-02    3.59       1.1  T
   4    -32.0725597 -0.598455E-06  0.443E-03    3.59       4.4  T
   5    -32.0725599 -0.202336E-06  0.189E-03    3.59      10.4  T
   6    -32.0725600 -0.391446E-07  0.917E-04    3.59      21.4  T
   7    -32.0725600 -0.685922E-08  0.281E-04    3.59      69.8  T
   8    -32.0725600 -0.169251E-09  0.781E-05    3.59     251.3  T
   9    -32.0725600 -0.361879E-10  0.372E-05    3.59     526.8  T
  10    -32.0725600 -0.315481E-11  0.112E-05    3.59    1745.6  T
  11    -32.0725600 -0.123634E-11  0.435E-06    3.59    4509.0  T
  12    -32.0725600 -0.142109E-13  0.170E-06    3.59   11550.6  T
     SCC iter.                  ...        0 min,  0.079 sec
     gradient                   ...        0 min,  0.003 sec
 * total energy  :   -31.5531915 Eh     change       -0.3149466E-03 Eh
   gradient norm :     0.0071928 Eh/α   predicted    -0.3106602E-03 (  -1.36%)
   displ. norm   :     0.2870577 α      lambda       -0.4698934E-03
   maximum displ.:     0.1443478 α      in ANC's #4, #1, #2, ...

........................................................................
.............................. CYCLE   15 ..............................
........................................................................

 iter      E             dE          RMSdq      gap      omega  full diag
   1    -32.0731549 -0.320732E+02  0.804E-02    3.59       0.0  T
   2    -32.0731561 -0.123144E-05  0.467E-02    3.60       1.0  T
   3    -32.0731559  0.228629E-06  0.574E-03    3.60       3.4  T
   4    -32.0731562 -0.315029E-06  0.250E-03    3.60       7.8  T
   5    -32.0731563 -0.105140E-06  0.100E-03    3.60      19.5  T
   6    -32.0731563 -0.930122E-08  0.370E-04    3.60      53.1  T
   7    -32.0731563 -0.440906E-09  0.182E-04    3.60     107.5  T
   8    -32.0731563 -0.134293E-09  0.544E-05    3.60     360.5  T
   9    -32.0731563 -0.345963E-10  0.219E-05    3.60     894.7  T
  10    -32.0731563 -0.170530E-11  0.813E-06    3.60    2413.5  T
  11    -32.0731563 -0.312639E-12  0.291E-06    3.60    6740.2  T
     SCC iter.                  ...        0 min,  0.095 sec
     gradient                   ...        0 min,  0.002 sec
 * total energy  :   -31.5535488 Eh     change       -0.3572771E-03 Eh
   gradient norm :     0.0064193 Eh/α   predicted    -0.2543098E-03 ( -28.82%)
   displ. norm   :     0.4802446 α      lambda       -0.5995405E-03
   maximum displ.:     0.2531448 α      in ANC's #4, #2, #1, ...

........................................................................
.............................. CYCLE   16 ..............................
........................................................................

 iter      E             dE          RMSdq      gap      omega  full diag
   1    -32.0727028 -0.320727E+02  0.127E-01    3.60       0.0  T
   2    -32.0727044 -0.161928E-05  0.749E-02    3.60       1.0  T
   3    -32.0727033  0.109789E-05  0.159E-02    3.60       1.2  T
   4    -32.0727049 -0.160920E-05  0.394E-03    3.60       5.0  T
   5    -32.0727049  0.634687E-07  0.264E-03    3.60       7.4  T
   6    -32.0727050 -0.914733E-07  0.788E-04    3.60      24.9  T
   7    -32.0727050 -0.101991E-08  0.202E-04    3.60      97.0  T
   8    -32.0727050 -0.838867E-10  0.682E-05    3.60     287.4  T
   9    -32.0727050 -0.450129E-10  0.225E-05    3.60     871.4  T
  10    -32.0727050 -0.219558E-11  0.524E-06    3.60    3743.1  T
  11    -32.0727050 -0.135003E-12  0.225E-06    3.60    8727.3  T
     SCC iter.                  ...        0 min,  0.098 sec
     gradient                   ...        0 min,  0.005 sec
 * total energy  :   -31.5539583 Eh     change       -0.4094440E-03 Eh
   gradient norm :     0.0052586 Eh/α   predicted    -0.3689100E-03 (  -9.90%)
   displ. norm   :     0.3699159 α      lambda       -0.3141233E-03
   maximum displ.:     0.1752695 α      in ANC's #4, #2, #1, ...

........................................................................
.............................. CYCLE   17 ..............................
........................................................................

 iter      E             dE          RMSdq      gap      omega  full diag
   1    -32.0708573 -0.320709E+02  0.109E-01    3.60       0.0  T
   2    -32.0708591 -0.179613E-05  0.636E-02    3.60       1.0  T
   3    -32.0708591 -0.248749E-07  0.580E-03    3.60       3.4  T
   4    -32.0708593 -0.222513E-06  0.307E-03    3.60       6.4  T
   5    -32.0708593 -0.359354E-07  0.138E-03    3.60      14.2  T
   6    -32.0708594 -0.132804E-07  0.422E-04    3.60      46.5  T
   7    -32.0708594 -0.212270E-08  0.140E-04    3.60     140.2  T
   8    -32.0708594 -0.541789E-10  0.512E-05    3.60     383.4  T
   9    -32.0708594 -0.315197E-10  0.252E-05    3.60     778.7  T
  10    -32.0708594 -0.325429E-11  0.325E-06    3.60    6033.1  T
  11    -32.0708594 -0.113687E-12  0.166E-06    3.60   11843.5  T
     SCC iter.                  ...        0 min,  0.094 sec
     gradient                   ...        0 min,  0.002 sec
 * total energy  :   -31.5541263 Eh     change       -0.1680444E-03 Eh
   gradient norm :     0.0098216 Eh/α   predicted    -0.1785547E-03 (   6.25%)
   displ. norm   :     0.3961921 α      lambda       -0.6155911E-03
   maximum displ.:     0.1745453 α      in ANC's #2, #9, #1, ...

........................................................................
.............................. CYCLE   18 ..............................
........................................................................

 iter      E             dE          RMSdq      gap      omega  full diag
   1    -32.0772248 -0.320772E+02  0.142E-01    3.59       0.0  T
   2    -32.0772341 -0.932278E-05  0.810E-02    3.58       1.0  T
   3    -32.0772340  0.585526E-07  0.177E-02    3.58       1.1  T
   4    -32.0772347 -0.710768E-06  0.368E-03    3.58       5.3  T
   5    -32.0772348 -0.643680E-07  0.212E-03    3.58       9.2  T
   6    -32.0772348 -0.127779E-07  0.765E-04    3.58      25.6  T
   7    -32.0772348 -0.990397E-08  0.280E-04    3.58      70.1  T
   8    -32.0772348 -0.213831E-09  0.100E-04    3.58     195.7  T
   9    -32.0772348 -0.395772E-11  0.544E-05    3.58     360.8  T
  10    -32.0772348 -0.188294E-10  0.102E-05    3.58    1924.7  T
  11    -32.0772348 -0.753175E-12  0.469E-06    3.58    4177.9  T
  12    -32.0772348 -0.163425E-12  0.214E-06    3.58    9173.7  T
     SCC iter.                  ...        0 min,  0.085 sec
     gradient                   ...        0 min,  0.002 sec
 * total energy  :   -31.5541539 Eh     change       -0.2761281E-04 Eh
   gradient norm :     0.0127404 Eh/α   predicted    -0.3561108E-03 (1189.66%)
   displ. norm   :     0.1832009 α      lambda       -0.5207210E-03
   maximum displ.:     0.0982870 α      in ANC's #6, #2, #4, ...

........................................................................
.............................. CYCLE   19 ..............................
........................................................................

 iter      E             dE          RMSdq      gap      omega  full diag
   1    -32.0732047 -0.320732E+02  0.777E-02    3.59       0.0  T
   2    -32.0732092 -0.455707E-05  0.433E-02    3.59       1.0  T
   3    -32.0732092  0.441218E-07  0.129E-02    3.59       1.5  T
   4    -32.0732095 -0.326260E-06  0.458E-03    3.59       4.3  T
   5    -32.0732096 -0.956935E-07  0.226E-03    3.59       8.7  T
   6    -32.0732097 -0.632905E-07  0.104E-03    3.59      18.8  T
   7    -32.0732097 -0.408548E-08  0.259E-04    3.59      75.7  T
   8    -32.0732097 -0.103213E-09  0.577E-05    3.59     340.0  T
   9    -32.0732097 -0.380851E-11  0.395E-05    3.59     496.1  T
  10    -32.0732097 -0.833467E-11  0.889E-06    3.59    2206.5  T
  11    -32.0732097 -0.390799E-12  0.363E-06    3.59    5407.0  T
     SCC iter.                  ...        0 min,  0.080 sec
     gradient                   ...        0 min,  0.002 sec
 * total energy  :   -31.5544241 Eh     change       -0.2702359E-03 Eh
   gradient norm :     0.0066469 Eh/α   predicted    -0.2691006E-03 (  -0.42%)
   displ. norm   :     0.0757570 α      lambda       -0.1624464E-03
   maximum displ.:     0.0381530 α      in ANC's #6, #4, #16, ...

........................................................................
.............................. CYCLE   20 ..............................
........................................................................

 iter      E             dE          RMSdq      gap      omega  full diag
   1    -32.0753598 -0.320754E+02  0.416E-02    3.60       0.0  T
   2    -32.0753605 -0.707279E-06  0.239E-02    3.60       1.0  T
   3    -32.0753604  0.171306E-06  0.499E-03    3.60       3.9  T
   4    -32.0753606 -0.216206E-06  0.187E-03    3.60      10.5  T
   5    -32.0753606 -0.584003E-07  0.752E-04    3.60      26.1  T
   6    -32.0753606 -0.260582E-08  0.278E-04    3.60      70.5  T
   7    -32.0753606 -0.476184E-09  0.127E-04    3.60     154.7  T
   8    -32.0753606 -0.239666E-10  0.389E-05    3.60     503.8  T
   9    -32.0753606 -0.174580E-10  0.230E-05    3.60     851.5  T
  10    -32.0753606 -0.223821E-11  0.576E-06    3.60    3407.5  T
  11    -32.0753606  0.213163E-13  0.243E-06    3.60    8074.4  T
     SCC iter.                  ...        0 min,  0.076 sec
     gradient                   ...        0 min,  0.002 sec
 * total energy  :   -31.5545018 Eh     change       -0.7760588E-04 Eh
   gradient norm :     0.0067189 Eh/α   predicted    -0.8169854E-04 (   5.27%)
   displ. norm   :     0.1733617 α      lambda       -0.1174448E-03
   maximum displ.:     0.1211487 α      in ANC's #2, #1, #4, ...
 * RMSD in coord.:     1.1903748 α      energy gain  -0.3517344E-01 Eh

generating ANC from model Hessian ...
Using Lindh-Hessian (1995)
 Shifting diagonal of input Hessian by   9.232346891268157E-003
 Lowest  eigenvalues of input Hessian
    0.000000    0.000000    0.000000    0.000000    0.000000    0.000000
    0.010000    0.010419    0.010549    0.011160    0.012239    0.012561
    0.015321    0.017115    0.018518    0.019380    0.023630    0.024379
 Highest eigenvalues
    1.362754    1.550640    1.574939    1.880417    1.986274    2.002947
 

........................................................................
.............................. CYCLE   21 ..............................
........................................................................

 iter      E             dE          RMSdq      gap      omega  full diag
   1    -32.0742167 -0.320742E+02  0.561E-02    3.60       0.0  T
   2    -32.0742172 -0.470128E-06  0.333E-02    3.60       1.0  T
   3    -32.0742170  0.217773E-06  0.530E-03    3.59       3.7  T
   4    -32.0742173 -0.302013E-06  0.156E-03    3.60      12.6  T
   5    -32.0742173 -0.121421E-07  0.760E-04    3.60      25.8  T
   6    -32.0742173 -0.550064E-08  0.359E-04    3.60      54.6  T
   7    -32.0742173 -0.376644E-09  0.913E-05    3.60     214.7  T
   8    -32.0742173 -0.345608E-10  0.270E-05    3.60     727.5  T
   9    -32.0742173 -0.122924E-10  0.112E-05    3.60    1749.2  T
  10    -32.0742173 -0.675016E-12  0.348E-06    3.60    5631.1  T
  11    -32.0742173 -0.213163E-13  0.140E-06    3.60   13992.2  T
     SCC iter.                  ...        0 min,  0.076 sec
     gradient                   ...        0 min,  0.002 sec
 * total energy  :   -31.5545873 Eh     change       -0.8551747E-04 Eh
   gradient norm :     0.0050057 Eh/α   predicted     0.0000000E+00 (-100.00%)
   displ. norm   :     0.0633555 α      lambda       -0.1305170E-03
   maximum displ.:     0.0301599 α      in ANC's #17, #9, #1, ...

........................................................................
.............................. CYCLE   22 ..............................
........................................................................

 iter      E             dE          RMSdq      gap      omega  full diag
   1    -32.0754315 -0.320754E+02  0.266E-02    3.60       0.0  T
   2    -32.0754318 -0.293665E-06  0.150E-02    3.60       1.3  T
   3    -32.0754318  0.634203E-08  0.272E-03    3.60       7.2  T
   4    -32.0754318 -0.357239E-07  0.142E-03    3.60      13.8  T
   5    -32.0754318 -0.182463E-07  0.493E-04    3.60      39.8  T
   6    -32.0754318  0.285446E-09  0.266E-04    3.60      73.8  T
   7    -32.0754318 -0.960029E-09  0.906E-05    3.60     216.6  T
   8    -32.0754318 -0.291678E-10  0.214E-05    3.60     916.9  T
   9    -32.0754318 -0.422773E-11  0.132E-05    3.60    1490.7  T
  10    -32.0754318 -0.532907E-12  0.453E-06    3.60    4333.5  T
  11    -32.0754318 -0.355271E-13  0.143E-06    3.60   13741.9  T
     SCC iter.                  ...        0 min,  0.075 sec
     gradient                   ...        0 min,  0.002 sec
 * total energy  :   -31.5546841 Eh     change       -0.9685877E-04 Eh
   gradient norm :     0.0018807 Eh/α   predicted    -0.6587714E-04 ( -31.99%)
   displ. norm   :     0.1821783 α      lambda       -0.1129474E-03
   maximum displ.:     0.0986650 α      in ANC's #9, #1, #3, ...

........................................................................
.............................. CYCLE   23 ..............................
........................................................................

 iter      E             dE          RMSdq      gap      omega  full diag
   1    -32.0763841 -0.320764E+02  0.527E-02    3.60       0.0  T
   2    -32.0763846 -0.538545E-06  0.305E-02    3.60       1.0  T
   3    -32.0763846  0.551896E-07  0.573E-03    3.60       3.4  T
   4    -32.0763847 -0.164178E-06  0.195E-03    3.60      10.0  T
   5    -32.0763847 -0.117437E-07  0.751E-04    3.60      26.1  T
   6    -32.0763847 -0.387573E-08  0.383E-04    3.60      51.2  T
   7    -32.0763847 -0.111747E-08  0.984E-05    3.60     199.4  T
   8    -32.0763847 -0.703011E-10  0.347E-05    3.60     565.0  T
   9    -32.0763847 -0.401457E-11  0.145E-05    3.60    1357.1  T
  10    -32.0763847 -0.204636E-11  0.424E-06    3.60    4624.4  T
  11    -32.0763847 -0.284217E-13  0.193E-06    3.60   10137.1  T
     SCC iter.                  ...        0 min,  0.082 sec
     gradient                   ...        0 min,  0.002 sec
 * total energy  :   -31.5547773 Eh     change       -0.9319855E-04 Eh
   gradient norm :     0.0029633 Eh/α   predicted    -0.5731479E-04 ( -38.50%)
   displ. norm   :     0.0941251 α      lambda       -0.5470253E-04
   maximum displ.:     0.0493590 α      in ANC's #9, #1, #3, ...

........................................................................
.............................. CYCLE   24 ..............................
........................................................................

 iter      E             dE          RMSdq      gap      omega  full diag
   1    -32.0759560 -0.320760E+02  0.283E-02    3.61       0.0  T
   2    -32.0759561 -0.113579E-06  0.165E-02    3.61       1.2  T
   3    -32.0759561  0.321150E-08  0.223E-03    3.61       8.8  T
   4    -32.0759561 -0.237639E-07  0.839E-04    3.61      23.4  T
   5    -32.0759561 -0.289513E-08  0.326E-04    3.61      60.1  T
   6    -32.0759561 -0.131144E-08  0.135E-04    3.61     145.3  T
   7    -32.0759561 -0.358185E-10  0.411E-05    3.61     477.5  T
   8    -32.0759561 -0.368061E-11  0.143E-05    3.61    1372.5  T
   9    -32.0759561 -0.169109E-11  0.773E-06    3.61    2536.0  T
  10    -32.0759561 -0.447642E-12  0.227E-06    3.61    8630.2  T
     SCC iter.                  ...        0 min,  0.086 sec
     gradient                   ...        0 min,  0.002 sec
 * total energy  :   -31.5548257 Eh     change       -0.4835029E-04 Eh
   gradient norm :     0.0023638 Eh/α   predicted    -0.2759583E-04 ( -42.93%)
   displ. norm   :     0.2826861 α      lambda       -0.1451329E-03
   maximum displ.:     0.1443122 α      in ANC's #9, #1, #3, ...

........................................................................
.............................. CYCLE   25 ..............................
........................................................................

 iter      E             dE          RMSdq      gap      omega  full diag
   1    -32.0743783 -0.320744E+02  0.837E-02    3.60       0.0  T
   2    -32.0743791 -0.730706E-06  0.491E-02    3.60       1.0  T
   3    -32.0743791  0.127591E-07  0.458E-03    3.60       4.3  T
   4    -32.0743792 -0.149441E-06  0.210E-03    3.60       9.3  T
   5    -32.0743792 -0.238259E-07  0.100E-03    3.60      19.6  T
   6    -32.0743792 -0.614558E-08  0.323E-04    3.60      60.8  T
   7    -32.0743792  0.427605E-10  0.134E-04    3.60     146.7  T
   8    -32.0743792 -0.275087E-09  0.457E-05    3.60     429.4  T
   9    -32.0743792  0.333955E-12  0.207E-05    3.60     947.3  T
  10    -32.0743792 -0.338218E-11  0.510E-06    3.60    3848.4  T
  11    -32.0743792 -0.923706E-13  0.149E-06    3.60   13165.7  T
     SCC iter.                  ...        0 min,  0.086 sec
     gradient                   ...        0 min,  0.002 sec
 * total energy  :   -31.5549102 Eh     change       -0.8447958E-04 Eh
   gradient norm :     0.0034213 Eh/α   predicted    -0.7839152E-04 (  -7.21%)
   displ. norm   :     0.0775353 α      lambda       -0.3701836E-04
   maximum displ.:     0.0481621 α      in ANC's #1, #2, #3, ...

........................................................................
.............................. CYCLE   26 ..............................
........................................................................

 iter      E             dE          RMSdq      gap      omega  full diag
   1    -32.0748740 -0.320749E+02  0.286E-02    3.61       0.0  T
   2    -32.0748741 -0.133419E-06  0.165E-02    3.61       1.2  T
   3    -32.0748741  0.237953E-07  0.221E-03    3.61       8.9  T
   4    -32.0748741 -0.362550E-07  0.953E-04    3.61      20.6  T
   5    -32.0748741 -0.106674E-07  0.309E-04    3.61      63.4  T
   6    -32.0748741 -0.770228E-09  0.129E-04    3.61     152.5  T
   7    -32.0748741 -0.487219E-10  0.546E-05    3.61     358.9  T
   8    -32.0748741 -0.175504E-10  0.143E-05    3.61    1369.5  T
   9    -32.0748741 -0.329692E-11  0.705E-06    3.61    2780.4  T
  10    -32.0748741 -0.262901E-12  0.227E-06    3.61    8656.1  T
     SCC iter.                  ...        0 min,  0.079 sec
     gradient                   ...        0 min,  0.002 sec
 * total energy  :   -31.5549401 Eh     change       -0.2992994E-04 Eh
   gradient norm :     0.0022198 Eh/α   predicted    -0.1862238E-04 ( -37.78%)
   displ. norm   :     0.1443226 α      lambda       -0.5564626E-04
   maximum displ.:     0.0895621 α      in ANC's #1, #2, #5, ...

........................................................................
.............................. CYCLE   27 ..............................
........................................................................

 iter      E             dE          RMSdq      gap      omega  full diag
   1    -32.0758536 -0.320759E+02  0.520E-02    3.61       0.0  T
   2    -32.0758539 -0.323777E-06  0.301E-02    3.61       1.0  T
   3    -32.0758538  0.755915E-07  0.342E-03    3.62       5.7  T
   4    -32.0758539 -0.103723E-06  0.151E-03    3.62      13.0  T
   5    -32.0758540 -0.343630E-07  0.378E-04    3.62      51.9  T
   6    -32.0758540 -0.543899E-09  0.190E-04    3.62     103.0  T
   7    -32.0758540 -0.885905E-10  0.758E-05    3.62     258.8  T
   8    -32.0758540 -0.571418E-10  0.180E-05    3.62    1088.2  T
   9    -32.0758540 -0.634515E-11  0.600E-06    3.62    3270.6  T
  10    -32.0758540 -0.277112E-12  0.303E-06    3.62    6477.4  T
     SCC iter.                  ...        0 min,  0.077 sec
     gradient                   ...        0 min,  0.002 sec
 * total energy  :   -31.5549824 Eh     change       -0.4233905E-04 Eh
   gradient norm :     0.0014884 Eh/α   predicted    -0.2840681E-04 ( -32.91%)
   displ. norm   :     0.3365895 α      lambda       -0.5543482E-04
   maximum displ.:     0.2017066 α      in ANC's #1, #2, #4, ...

........................................................................
.............................. CYCLE   28 ..............................
........................................................................

 iter      E             dE          RMSdq      gap      omega  full diag
   1    -32.0754465 -0.320754E+02  0.116E-01    3.62       0.0  T
   2    -32.0754477 -0.120575E-05  0.679E-02    3.62       1.0  T
   3    -32.0754474  0.289615E-06  0.701E-03    3.62       2.8  T
   4    -32.0754479 -0.453447E-06  0.297E-03    3.62       6.6  T
   5    -32.0754480 -0.107348E-06  0.105E-03    3.62      18.6  T
   6    -32.0754480 -0.859419E-08  0.503E-04    3.62      39.0  T
   7    -32.0754480 -0.257508E-09  0.130E-04    3.62     150.8  T
   8    -32.0754480 -0.259128E-09  0.482E-05    3.62     406.9  T
   9    -32.0754480 -0.257003E-10  0.211E-05    3.62     931.5  T
  10    -32.0754480 -0.930811E-12  0.586E-06    3.62    3348.6  T
  11    -32.0754480 -0.135003E-12  0.190E-06    3.62   10337.2  T
     SCC iter.                  ...        0 min,  0.080 sec
     gradient                   ...        0 min,  0.002 sec
 * total energy  :   -31.5550443 Eh     change       -0.6191962E-04 Eh
   gradient norm :     0.0025958 Eh/α   predicted    -0.2911672E-04 ( -52.98%)
   displ. norm   :     0.2148110 α      lambda       -0.5951924E-04
   maximum displ.:     0.1319229 α      in ANC's #1, #2, #4, ...

........................................................................
.............................. CYCLE   29 ..............................
........................................................................

 iter      E             dE          RMSdq      gap      omega  full diag
   1    -32.0758894 -0.320759E+02  0.748E-02    3.62       0.0  T
   2    -32.0758899 -0.510239E-06  0.439E-02    3.62       1.0  T
   3    -32.0758897  0.152918E-06  0.471E-03    3.62       4.2  T
   4    -32.0758900 -0.234432E-06  0.175E-03    3.62      11.2  T
   5    -32.0758900 -0.350735E-07  0.643E-04    3.62      30.5  T
   6    -32.0758900 -0.434880E-08  0.308E-04    3.62      63.7  T
   7    -32.0758900 -0.665139E-10  0.624E-05    3.62     314.5  T
   8    -32.0758900 -0.721840E-10  0.214E-05    3.62     917.8  T
   9    -32.0758900 -0.866862E-11  0.756E-06    3.62    2593.2  T
  10    -32.0758900 -0.298428E-12  0.285E-06    3.62    6876.2  T
     SCC iter.                  ...        0 min,  0.077 sec
     gradient                   ...        0 min,  0.002 sec
 * total energy  :   -31.5550953 Eh     change       -0.5091103E-04 Eh
   gradient norm :     0.0026850 Eh/α   predicted    -0.3113303E-04 ( -38.85%)
   displ. norm   :     0.4014878 α      lambda       -0.9911879E-04
   maximum displ.:     0.2441911 α      in ANC's #1, #2, #4, ...

........................................................................
.............................. CYCLE   30 ..............................
........................................................................

 iter      E             dE          RMSdq      gap      omega  full diag
   1    -32.0745033 -0.320745E+02  0.136E-01    3.62       0.0  T
   2    -32.0745051 -0.185234E-05  0.804E-02    3.63       1.0  T
   3    -32.0745046  0.464694E-06  0.960E-03    3.63       2.0  T
   4    -32.0745054 -0.798886E-06  0.301E-03    3.63       6.5  T
   5    -32.0745055 -0.515280E-07  0.151E-03    3.63      13.0  T
   6    -32.0745055 -0.223247E-07  0.696E-04    3.63      28.2  T
   7    -32.0745055 -0.899490E-09  0.154E-04    3.63     127.0  T
   8    -32.0745055 -0.109587E-09  0.566E-05    3.63     346.6  T
   9    -32.0745055 -0.454463E-10  0.311E-05    3.63     631.0  T
  10    -32.0745055 -0.217426E-11  0.694E-06    3.63    2827.0  T
  11    -32.0745055 -0.227374E-12  0.198E-06    3.63    9914.4  T
     SCC iter.                  ...        0 min,  0.075 sec
     gradient                   ...        0 min,  0.002 sec
 * total energy  :   -31.5551720 Eh     change       -0.7669806E-04 Eh
   gradient norm :     0.0025131 Eh/α   predicted    -0.5755059E-04 ( -24.96%)
   displ. norm   :     0.3660016 α      lambda       -0.9400347E-04
   maximum displ.:     0.2270915 α      in ANC's #1, #2, #4, ...

........................................................................
.............................. CYCLE   31 ..............................
........................................................................

 iter      E             dE          RMSdq      gap      omega  full diag
   1    -32.0743176 -0.320743E+02  0.124E-01    3.63       0.0  T
   2    -32.0743189 -0.128844E-05  0.728E-02    3.63       1.0  T
   3    -32.0743184  0.520808E-06  0.872E-03    3.63       2.3  T
   4    -32.0743192 -0.820041E-06  0.263E-03    3.63       7.5  T
   5    -32.0743192 -0.354403E-07  0.123E-03    3.63      16.0  T
   6    -32.0743193 -0.181059E-07  0.597E-04    3.63      32.9  T
   7    -32.0743193 -0.517439E-09  0.112E-04    3.63     175.8  T
   8    -32.0743193 -0.140226E-09  0.422E-05    3.63     465.2  T
   9    -32.0743193 -0.401457E-10  0.144E-05    3.63    1357.9  T
  10    -32.0743193 -0.738964E-12  0.490E-06    3.63    3998.4  T
  11    -32.0743193 -0.994760E-13  0.191E-06    3.63   10285.9  T
     SCC iter.                  ...        0 min,  0.081 sec
     gradient                   ...        0 min,  0.002 sec
 * total energy  :   -31.5552374 Eh     change       -0.6539497E-04 Eh
   gradient norm :     0.0036507 Eh/α   predicted    -0.5329842E-04 ( -18.50%)
   displ. norm   :     0.2593816 α      lambda       -0.7225486E-04
   maximum displ.:     0.1663318 α      in ANC's #1, #2, #4, ...

........................................................................
.............................. CYCLE   32 ..............................
........................................................................

 iter      E             dE          RMSdq      gap      omega  full diag
   1    -32.0752830 -0.320753E+02  0.866E-02    3.63       0.0  T
   2    -32.0752837 -0.665584E-06  0.509E-02    3.63       1.0  T
   3    -32.0752834  0.288297E-06  0.651E-03    3.63       3.0  T
   4    -32.0752839 -0.440974E-06  0.211E-03    3.63       9.3  T
   5    -32.0752839 -0.177445E-07  0.102E-03    3.63      19.2  T
   6    -32.0752839 -0.118292E-07  0.502E-04    3.63      39.1  T
   7    -32.0752839 -0.436415E-09  0.918E-05    3.63     213.6  T
   8    -32.0752839 -0.133646E-09  0.392E-05    3.63     499.8  T
   9    -32.0752839 -0.149640E-10  0.190E-05    3.63    1029.5  T
  10    -32.0752839 -0.298428E-12  0.503E-06    3.63    3899.6  T
  11    -32.0752839 -0.127898E-12  0.148E-06    3.63   13252.9  T
     SCC iter.                  ...        0 min,  0.091 sec
     gradient                   ...        0 min,  0.002 sec
 * total energy  :   -31.5552940 Eh     change       -0.5660123E-04 Eh
   gradient norm :     0.0030425 Eh/α   predicted    -0.3855918E-04 ( -31.88%)
   displ. norm   :     0.3901524 α      lambda       -0.8254773E-04
   maximum displ.:     0.2507554 α      in ANC's #1, #2, #4, ...

........................................................................
.............................. CYCLE   33 ..............................
........................................................................

 iter      E             dE          RMSdq      gap      omega  full diag
   1    -32.0745657 -0.320746E+02  0.132E-01    3.63       0.0  T
   2    -32.0745673 -0.161071E-05  0.773E-02    3.63       1.0  T
   3    -32.0745667  0.586119E-06  0.102E-02    3.63       1.9  T
   4    -32.0745677 -0.934412E-06  0.337E-03    3.63       5.8  T
   5    -32.0745677 -0.334536E-07  0.168E-03    3.63      11.7  T
   6    -32.0745677 -0.382454E-07  0.795E-04    3.63      24.7  T
   7    -32.0745677 -0.109594E-08  0.141E-04    3.63     139.3  T
   8    -32.0745677 -0.251731E-09  0.593E-05    3.63     330.9  T
   9    -32.0745677 -0.430518E-10  0.279E-05    3.63     703.9  T
  10    -32.0745677 -0.802913E-12  0.794E-06    3.63    2469.0  T
  11    -32.0745677 -0.127898E-12  0.271E-06    3.63    7238.2  T
     SCC iter.                  ...        0 min,  0.082 sec
     gradient                   ...        0 min,  0.003 sec
 * total energy  :   -31.5553563 Eh     change       -0.6235691E-04 Eh
   gradient norm :     0.0030237 Eh/α   predicted    -0.4755765E-04 ( -23.73%)
   displ. norm   :     0.3153526 α      lambda       -0.1140596E-03
   maximum displ.:     0.1988685 α      in ANC's #1, #2, #3, ...

........................................................................
.............................. CYCLE   34 ..............................
........................................................................

 iter      E             dE          RMSdq      gap      omega  full diag
   1    -32.0796428 -0.320796E+02  0.107E-01    3.65       0.0  T
   2    -32.0796447 -0.194102E-05  0.621E-02    3.65       1.0  T
   3    -32.0796439  0.761873E-06  0.916E-03    3.65       2.1  T
   4    -32.0796450 -0.104231E-05  0.326E-03    3.65       6.0  T
   5    -32.0796451 -0.930947E-07  0.136E-03    3.65      14.4  T
   6    -32.0796451 -0.148922E-07  0.695E-04    3.65      28.2  T
   7    -32.0796451 -0.235777E-08  0.224E-04    3.65      87.5  T
   8    -32.0796451  0.191136E-11  0.671E-05    3.65     292.2  T
   9    -32.0796451 -0.852296E-10  0.186E-05    3.65    1054.7  T
  10    -32.0796451  0.710543E-14  0.990E-06    3.65    1980.8  T
  11    -32.0796451 -0.746070E-12  0.337E-06    3.65    5814.7  T
     SCC iter.                  ...        0 min,  0.088 sec
     gradient                   ...        0 min,  0.002 sec
 * total energy  :   -31.5553844 Eh     change       -0.2804164E-04 Eh
   gradient norm :     0.0052211 Eh/α   predicted    -0.6270161E-04 ( 123.60%)
   displ. norm   :     0.4625875 α      lambda       -0.1184544E-03
   maximum displ.:     0.2917057 α      in ANC's #1, #2, #4, ...

........................................................................
.............................. CYCLE   35 ..............................
........................................................................

 iter      E             dE          RMSdq      gap      omega  full diag
   1    -32.0735688 -0.320736E+02  0.159E-01    3.63       0.0  T
   2    -32.0735721 -0.323913E-05  0.932E-02    3.63       1.0  T
   3    -32.0735715  0.582274E-06  0.117E-02    3.63       1.7  T
   4    -32.0735726 -0.112189E-05  0.370E-03    3.63       5.3  T
   5    -32.0735727 -0.651553E-07  0.173E-03    3.63      11.3  T
   6    -32.0735727 -0.375604E-07  0.880E-04    3.63      22.3  T
   7    -32.0735727 -0.296875E-08  0.227E-04    3.63      86.5  T
   8    -32.0735727 -0.145612E-09  0.766E-05    3.63     256.0  T
   9    -32.0735727 -0.877520E-10  0.359E-05    3.63     546.5  T
  10    -32.0735727 -0.171241E-11  0.962E-06    3.63    2038.7  T
  11    -32.0735727 -0.108002E-11  0.413E-06    3.63    4743.5  T
     SCC iter.                  ...        0 min,  0.088 sec
     gradient                   ...        0 min,  0.002 sec
 * total energy  :   -31.5554324 Eh     change       -0.4804970E-04 Eh
   gradient norm :     0.0040000 Eh/α   predicted    -0.7190280E-04 (  49.64%)
   displ. norm   :     0.1471509 α      lambda       -0.5938626E-04
   maximum displ.:     0.0946027 α      in ANC's #1, #2, #4, ...

........................................................................
.............................. CYCLE   36 ..............................
........................................................................

 iter      E             dE          RMSdq      gap      omega  full diag
   1    -32.0759748 -0.320760E+02  0.512E-02    3.65       0.0  T
   2    -32.0759753 -0.512936E-06  0.297E-02    3.64       1.0  T
   3    -32.0759751  0.141470E-06  0.445E-03    3.64       4.4  T
   4    -32.0759753 -0.216125E-06  0.144E-03    3.64      13.6  T
   5    -32.0759754 -0.179158E-07  0.537E-04    3.64      36.5  T
   6    -32.0759754 -0.513204E-08  0.336E-04    3.64      58.4  T
   7    -32.0759754 -0.370996E-09  0.137E-04    3.64     143.1  T
   8    -32.0759754 -0.716938E-11  0.283E-05    3.64     692.3  T
   9    -32.0759754 -0.154472E-10  0.126E-05    3.64    1562.2  T
  10    -32.0759754 -0.973444E-12  0.404E-06    3.64    4851.9  T
  11    -32.0759754 -0.135003E-12  0.199E-06    3.64    9858.4  T
     SCC iter.                  ...        0 min,  0.089 sec
     gradient                   ...        0 min,  0.002 sec
 * total energy  :   -31.5554582 Eh     change       -0.2577800E-04 Eh
   gradient norm :     0.0021433 Eh/α   predicted    -0.3033717E-04 (  17.69%)
   displ. norm   :     0.1227493 α      lambda       -0.3647168E-04
   maximum displ.:     0.0822360 α      in ANC's #2, #1, #9, ...

........................................................................
.............................. CYCLE   37 ..............................
........................................................................

 iter      E             dE          RMSdq      gap      omega  full diag
   1    -32.0768422 -0.320768E+02  0.436E-02    3.64       0.0  T
   2    -32.0768424 -0.187358E-06  0.255E-02    3.65       1.0  T
   3    -32.0768424  0.314919E-07  0.217E-03    3.65       9.0  T
   4    -32.0768425 -0.641662E-07  0.858E-04    3.65      22.9  T
   5    -32.0768425 -0.100935E-07  0.328E-04    3.65      59.8  T
   6    -32.0768425 -0.633634E-09  0.146E-04    3.65     134.5  T
   7    -32.0768425 -0.504841E-10  0.584E-05    3.65     335.6  T
   8    -32.0768425 -0.242295E-11  0.203E-05    3.65     966.1  T
   9    -32.0768425 -0.892442E-11  0.728E-06    3.65    2694.6  T
  10    -32.0768425 -0.710543E-13  0.249E-06    3.65    7888.5  T
     SCC iter.                  ...        0 min,  0.089 sec
     gradient                   ...        0 min,  0.002 sec
 * total energy  :   -31.5554871 Eh     change       -0.2896969E-04 Eh
   gradient norm :     0.0011756 Eh/α   predicted    -0.1851283E-04 ( -36.10%)
   displ. norm   :     0.6848664 α      lambda       -0.7480779E-04
   maximum displ.:     0.4525140 α      in ANC's #2, #1, #3, ...

........................................................................
.............................. CYCLE   38 ..............................
........................................................................

 iter      E             dE          RMSdq      gap      omega  full diag
   1    -32.0734336 -0.320734E+02  0.243E-01    3.63       0.0  T
   2    -32.0734383 -0.473076E-05  0.143E-01    3.63       1.0  T
   3    -32.0734376  0.759429E-06  0.146E-02    3.63       1.3  T
   4    -32.0734394 -0.187299E-05  0.436E-03    3.63       4.5  T
   5    -32.0734396 -0.116570E-06  0.204E-03    3.63       9.6  T
   6    -32.0734396 -0.582195E-07  0.959E-04    3.63      20.4  T
   7    -32.0734396 -0.187909E-08  0.202E-04    3.63      97.1  T
   8    -32.0734396 -0.554614E-09  0.888E-05    3.63     220.9  T
   9    -32.0734396 -0.937774E-10  0.349E-05    3.63     562.4  T
  10    -32.0734396 -0.738964E-12  0.126E-05    3.63    1559.6  T
  11    -32.0734396 -0.159162E-11  0.408E-06    3.63    4802.1  T
  12    -32.0734396 -0.106581E-12  0.135E-06    3.63   14474.9  T
     SCC iter.                  ...        0 min,  0.088 sec
     gradient                   ...        0 min,  0.002 sec
 * total energy  :   -31.5555116 Eh     change       -0.2443514E-04 Eh
   gradient norm :     0.0052382 Eh/α   predicted    -0.4519941E-04 (  84.98%)
   displ. norm   :     0.1518942 α      lambda       -0.7048173E-04
   maximum displ.:     0.1013436 α      in ANC's #1, #2, #4, ...

........................................................................
.............................. CYCLE   39 ..............................
........................................................................

 iter      E             dE          RMSdq      gap      omega  full diag
   1    -32.0767483 -0.320767E+02  0.528E-02    3.65       0.0  T
   2    -32.0767486 -0.390168E-06  0.309E-02    3.65       1.0  T
   3    -32.0767484  0.216199E-06  0.443E-03    3.65       4.4  T
   4    -32.0767487 -0.295402E-06  0.133E-03    3.65      14.7  T
   5    -32.0767487 -0.181463E-07  0.471E-04    3.65      41.7  T
   6    -32.0767487 -0.369545E-08  0.266E-04    3.65      73.7  T
   7    -32.0767487 -0.386848E-09  0.712E-05    3.65     275.3  T
   8    -32.0767487 -0.375451E-10  0.236E-05    3.65     831.9  T
   9    -32.0767487 -0.325429E-11  0.937E-06    3.65    2093.6  T
  10    -32.0767487  0.142109E-13  0.438E-06    3.65    4475.3  T
     SCC iter.                  ...        0 min,  0.093 sec
     gradient                   ...        0 min,  0.002 sec
 * total energy  :   -31.5555476 Eh     change       -0.3599791E-04 Eh
   gradient norm :     0.0019506 Eh/α   predicted    -0.3605791E-04 (   0.17%)
   displ. norm   :     0.0700921 α      lambda       -0.1399488E-04
   maximum displ.:     0.0484817 α      in ANC's #2, #1, #4, ...

........................................................................
.............................. CYCLE   40 ..............................
........................................................................

 iter      E             dE          RMSdq      gap      omega  full diag
   1    -32.0770627 -0.320771E+02  0.270E-02    3.65       0.0  T
   2    -32.0770628 -0.910346E-07  0.160E-02    3.65       1.2  T
   3    -32.0770627  0.526965E-07  0.305E-03    3.65       6.4  T
   4    -32.0770628 -0.793661E-07  0.918E-04    3.65      21.4  T
   5    -32.0770628  0.162095E-08  0.488E-04    3.65      40.2  T
   6    -32.0770628 -0.286469E-08  0.140E-04    3.65     140.2  T
   7    -32.0770628 -0.826716E-10  0.330E-05    3.65     593.7  T
   8    -32.0770628 -0.827072E-11  0.159E-05    3.65    1236.5  T
   9    -32.0770628 -0.265743E-11  0.713E-06    3.65    2751.0  T
  10    -32.0770628 -0.113687E-12  0.230E-06    3.65    8516.0  T
     SCC iter.                  ...        0 min,  0.089 sec
     gradient                   ...        0 min,  0.002 sec
 * total energy  :   -31.5555590 Eh     change       -0.1144577E-04 Eh
   gradient norm :     0.0017450 Eh/α   predicted    -0.7012758E-05 ( -38.73%)
   displ. norm   :     0.1723998 α      lambda       -0.1801811E-04
   maximum displ.:     0.1256093 α      in ANC's #2, #1, #4, ...

........................................................................
.............................. CYCLE   41 ..............................
........................................................................

 iter      E             dE          RMSdq      gap      omega  full diag
   1    -32.0771506 -0.320772E+02  0.653E-02    3.65       0.0  T
   2    -32.0771510 -0.428352E-06  0.388E-02    3.65       1.0  T
   3    -32.0771509  0.142486E-06  0.620E-03    3.65       3.2  T
   4    -32.0771511 -0.243795E-06  0.147E-03    3.65      13.3  T
   5    -32.0771511  0.212457E-08  0.844E-04    3.65      23.2  T
   6    -32.0771511 -0.553104E-08  0.363E-04    3.65      54.1  T
   7    -32.0771511 -0.433069E-09  0.638E-05    3.65     307.3  T
   8    -32.0771511 -0.126121E-10  0.241E-05    3.65     813.2  T
   9    -32.0771511 -0.103810E-10  0.127E-05    3.65    1548.0  T
  10    -32.0771511 -0.532907E-12  0.497E-06    3.65    3949.6  T
  11    -32.0771511 -0.710543E-14  0.153E-06    3.65   12797.8  T
     SCC iter.                  ...        0 min,  0.086 sec
     gradient                   ...        0 min,  0.002 sec
 * total energy  :   -31.5555699 Eh     change       -0.1090665E-04 Eh
   gradient norm :     0.0023076 Eh/α   predicted    -0.9124985E-05 ( -16.34%)
   displ. norm   :     0.1073468 α      lambda       -0.1415836E-04
   maximum displ.:     0.0790935 α      in ANC's #2, #1, #4, ...

........................................................................
.............................. CYCLE   42 ..............................
........................................................................

 iter      E             dE          RMSdq      gap      omega  full diag
   1    -32.0765686 -0.320766E+02  0.399E-02    3.65       0.0  T
   2    -32.0765688 -0.169188E-06  0.235E-02    3.65       1.0  T
   3    -32.0765688  0.270582E-07  0.313E-03    3.65       6.3  T
   4    -32.0765689 -0.665531E-07  0.708E-04    3.65      27.7  T
   5    -32.0765689 -0.126892E-08  0.325E-04    3.65      60.4  T
   6    -32.0765689 -0.113903E-08  0.148E-04    3.65     132.7  T
   7    -32.0765689 -0.530349E-10  0.384E-05    3.65     510.7  T
   8    -32.0765689 -0.128608E-11  0.917E-06    3.65    2139.4  T
   9    -32.0765689 -0.213163E-12  0.367E-06    3.65    5339.4  T
     SCC iter.                  ...        0 min,  0.081 sec
     gradient                   ...        0 min,  0.002 sec
 * total energy  :   -31.5555801 Eh     change       -0.1017929E-04 Eh
   gradient norm :     0.0014065 Eh/α   predicted    -0.7161194E-05 ( -29.65%)
   displ. norm   :     0.1579687 α      lambda       -0.1509672E-04
   maximum displ.:     0.1203031 α      in ANC's #2, #1, #10, ...
 * RMSD in coord.:     0.8316329 α      energy gain  -0.1078359E-02 Eh

generating ANC from model Hessian ...
Using Lindh-Hessian (1995)
 Shifting diagonal of input Hessian by   9.142754806851191E-003
 Lowest  eigenvalues of input Hessian
    0.000000    0.000000    0.000000    0.000000    0.000000    0.000000
    0.010000    0.010104    0.010615    0.011276    0.012194    0.012411
    0.015046    0.017116    0.018468    0.019349    0.024193    0.024756
 Highest eigenvalues
    1.362673    1.550692    1.575610    1.881796    1.986674    2.004362
 

........................................................................
.............................. CYCLE   43 ..............................
........................................................................

 iter      E             dE          RMSdq      gap      omega  full diag
   1    -32.0765247 -0.320765E+02  0.591E-02    3.65       0.0  T
   2    -32.0765250 -0.311260E-06  0.347E-02    3.65       1.0  T
   3    -32.0765250 -0.122888E-08  0.269E-03    3.65       7.3  T
   4    -32.0765251 -0.563771E-07  0.130E-03    3.65      15.1  T
   5    -32.0765251 -0.182095E-07  0.511E-04    3.65      38.3  T
   6    -32.0765251 -0.153369E-08  0.235E-04    3.65      83.3  T
   7    -32.0765251 -0.356621E-10  0.560E-05    3.65     350.0  T
   8    -32.0765251 -0.348024E-10  0.145E-05    3.65    1356.2  T
   9    -32.0765251 -0.251532E-11  0.607E-06    3.65    3231.6  T
  10    -32.0765251 -0.113687E-12  0.228E-06    3.65    8597.0  T
     SCC iter.                  ...        0 min,  0.083 sec
     gradient                   ...        0 min,  0.002 sec
 * total energy  :   -31.5555893 Eh     change       -0.9145786E-05 Eh
   gradient norm :     0.0017207 Eh/α   predicted     0.0000000E+00 (-100.00%)
   displ. norm   :     0.0322767 α      lambda       -0.1211983E-04
   maximum displ.:     0.0169154 α      in ANC's #4, #3, #6, ...

........................................................................
.............................. CYCLE   44 ..............................
........................................................................

 iter      E             dE          RMSdq      gap      omega  full diag
   1    -32.0768876 -0.320769E+02  0.159E-02    3.65       0.0  T
   2    -32.0768877 -0.569421E-07  0.918E-03    3.65       2.1  T
   3    -32.0768876  0.170395E-07  0.188E-03    3.65      10.4  T
   4    -32.0768877 -0.261896E-07  0.463E-04    3.65      42.4  T
   5    -32.0768877 -0.140186E-08  0.209E-04    3.65      93.8  T
   6    -32.0768877 -0.299046E-09  0.954E-05    3.65     205.6  T
   7    -32.0768877 -0.515925E-10  0.308E-05    3.65     636.3  T
   8    -32.0768877 -0.812150E-11  0.936E-06    3.65    2094.2  T
   9    -32.0768877 -0.788702E-12  0.406E-06    3.65    4825.8  T
     SCC iter.                  ...        0 min,  0.079 sec
     gradient                   ...        0 min,  0.002 sec
 * total energy  :   -31.5556002 Eh     change       -0.1095282E-04 Eh
   gradient norm :     0.0004877 Eh/α   predicted    -0.6086897E-05 ( -44.43%)
   displ. norm   :     0.0499908 α      lambda       -0.7346095E-05
   maximum displ.:     0.0286045 α      in ANC's #4, #3, #6, ...

........................................................................
.............................. CYCLE   45 ..............................
........................................................................

 iter      E             dE          RMSdq      gap      omega  full diag
   1    -32.0770093 -0.320770E+02  0.160E-02    3.65       0.0  T
   2    -32.0770094 -0.412956E-07  0.929E-03    3.65       2.1  T
   3    -32.0770093  0.141766E-07  0.208E-03    3.65       9.4  T
   4    -32.0770094 -0.217628E-07  0.393E-04    3.65      49.9  T
   5    -32.0770094 -0.498375E-10  0.222E-04    3.65      88.4  T
   6    -32.0770094 -0.897813E-09  0.786E-05    3.65     249.4  T
   7    -32.0770094 -0.385825E-11  0.189E-05    3.65    1039.3  T
   8    -32.0770094 -0.220979E-11  0.691E-06    3.65    2839.6  T
   9    -32.0770094 -0.447642E-12  0.217E-06    3.65    9041.7  T
     SCC iter.                  ...        0 min,  0.086 sec
     gradient                   ...        0 min,  0.002 sec
 * total energy  :   -31.5556089 Eh     change       -0.8682903E-05 Eh
   gradient norm :     0.0009323 Eh/α   predicted    -0.3680864E-05 ( -57.61%)
   displ. norm   :     0.0919207 α      lambda       -0.1065276E-04
   maximum displ.:     0.0482827 α      in ANC's #4, #3, #6, ...

........................................................................
.............................. CYCLE   46 ..............................
........................................................................

 iter      E             dE          RMSdq      gap      omega  full diag
   1    -32.0768199 -0.320768E+02  0.270E-02    3.65       0.0  T
   2    -32.0768200 -0.707088E-07  0.158E-02    3.65       1.2  T
   3    -32.0768200  0.187294E-07  0.206E-03    3.65       9.5  T
[...]
         :::::::::::::::::::::::::::::::::::::::::::::::::::::

           ------------------------------------------------- 
          |                Numerical Hessian                |
           ------------------------------------------------- 
step length          :   0.00500
SCC accuracy         :   0.30000
Hessian scale factor :   1.00000
frozen atoms in %    :   0.00000    0
RMS gradient         :   0.00005
estimated CPU  time      1.10 min
estimated wall time      0.13 min

writing file <hessian>.

 projected vibrational frequencies (cm⁻¹)
eigval :       -0.00    -0.00    -0.00     0.00     0.00     0.00
eigval :       24.75    64.09    84.54   113.34   161.35   170.35
eigval :      201.64   222.56   248.10   262.05   315.22   361.08
eigval :      366.18   393.02   472.95   585.87   648.63   659.29
eigval :      679.02   690.62   736.47   760.67   769.37   872.94
eigval :      896.14   925.87   931.68   967.53   982.04   995.04
eigval :     1013.50  1017.16  1063.75  1077.74  1084.83  1115.13
eigval :     1123.26  1181.72  1203.73  1222.59  1230.95  1249.98
eigval :     1268.60  1280.16  1317.25  1407.71  1412.81  1421.50
eigval :     1448.77  1451.25  1462.02  1496.50  1499.47  1504.91
eigval :     1506.72  1578.20  1589.28  2936.06  2941.10  2951.52
eigval :     2954.95  3011.85  3012.30  3023.40  3025.17  3034.08
eigval :     3041.12  3053.99  3067.35  3074.31  3086.68  3093.26
           -------------------------------------------------
          |                Property Printout                |
           -------------------------------------------------

    * Orbital Energies and Occupations

         #    Occupation            Energy/Eh            Energy/eV
      -------------------------------------------------------------
         1        2.0000           -0.6587540             -17.9256
       ...           ...                  ...                  ...
        18        2.0000           -0.4754639             -12.9380
        19        2.0000           -0.4741809             -12.9031
        20        2.0000           -0.4670949             -12.7103
        21        2.0000           -0.4610073             -12.5446
        22        2.0000           -0.4564873             -12.4217
        23        2.0000           -0.4435004             -12.0683
        24        2.0000           -0.4381366             -11.9223
        25        2.0000           -0.4238665             -11.5340
        26        2.0000           -0.4164521             -11.3322
        27        2.0000           -0.4070249             -11.0757
        28        2.0000           -0.4029613             -10.9651
        29        2.0000           -0.3994513             -10.8696
        30        2.0000           -0.3641654              -9.9094 (HOMO)
        31                         -0.2300900              -6.2611 (LUMO)
        32                         -0.2216287              -6.0308
        33                         -0.1542871              -4.1984
        34                         -0.1503089              -4.0901
        35                         -0.0931357              -2.5344
        36                          0.0034253               0.0932
        37                          0.0494219               1.3448
        38                          0.0997123               2.7133
        39                          0.1119518               3.0464
        40                          0.1212383               3.2991
        41                          0.1308164               3.5597
       ...                                ...                  ...
        64                          0.7780674              21.1723
      -------------------------------------------------------------
                  HL-Gap            0.1340754 Eh            3.6484 eV
             Fermi-level           -0.2971277 Eh           -8.0853 eV

     #   Z          covCN         q      C6AA      α(0)
     1  15 P        3.031    -0.115   165.457    23.108
     2   6 C        3.747    -0.046    21.459     6.607
     3   1 H        0.926     0.042     2.420     2.433
     4   1 H        0.926     0.040     2.449     2.447
     5   6 C        3.780    -0.096    22.347     6.734
     6   1 H        0.925     0.038     2.471     2.458
     7   1 H        0.925     0.037     2.486     2.466
     8   1 H        0.925     0.033     2.540     2.492
     9   6 C        2.915     0.012    27.743     8.637
    10   6 C        2.955    -0.033    28.817     8.805
    11   6 C        3.035    -0.030    28.716     8.790
    12   6 C        2.920    -0.032    28.788     8.799
    13   6 C        2.918    -0.030    28.747     8.792
    14   6 C        2.920    -0.031    28.773     8.796
    15   1 H        0.926     0.036     2.506     2.476
    16   1 H        0.925     0.035     2.521     2.483
    17   1 H        0.926     0.027     2.629     2.536
    18   1 H        0.926     0.029     2.605     2.524
    19   1 H        0.926     0.028     2.617     2.530
    20   6 C        3.748    -0.045    21.452     6.606
    21   1 H        0.925     0.046     2.368     2.407
    22   1 H        0.926     0.040     2.448     2.446
    23   6 C        3.822    -0.097    22.341     6.726
    24   1 H        0.925     0.039     2.463     2.454
    25   1 H        0.925     0.041     2.434     2.440
    26   1 H        0.925     0.031     2.569     2.506

 Mol. C6AA /au·bohr⁶  :       7599.284844
 Mol. C8AA /au·bohr⁸  :     202588.092338
 Mol. α(0) /au        :        139.498701


Wiberg/Mayer (AO) data.
largest (>0.10) Wiberg bond orders for each atom

 ---------------------------------------------------------------------------
     #   Z sym  total        # sym  WBO       # sym  WBO       # sym  WBO
 ---------------------------------------------------------------------------
     1  15 P    3.375 --    20 C    1.031     9 C    1.017     2 C    1.012
     2   6 C    3.994 --     1 P    1.012     5 C    1.012     4 H    0.957
                             3 H    0.956
     3   1 H    0.998 --     2 C    0.956
     4   1 H    0.998 --     2 C    0.957
     5   6 C    3.997 --     2 C    1.012     7 H    0.985     6 H    0.983
                             8 H    0.983
     6   1 H    0.999 --     5 C    0.983
     7   1 H    0.999 --     5 C    0.985
     8   1 H    0.999 --     5 C    0.983
     9   6 C    3.982 --    10 C    1.404    11 C    1.390     1 P    1.017
                            14 C    0.106
    10   6 C    3.993 --    12 C    1.439     9 C    1.404    15 H    0.961
                            13 C    0.107
    11   6 C    3.992 --    13 C    1.457     9 C    1.390    16 H    0.962
                            12 C    0.110
    12   6 C    3.993 --    14 C    1.442    10 C    1.439    17 H    0.970
                            11 C    0.110
    13   6 C    3.991 --    11 C    1.457    14 C    1.428    18 H    0.970
                            10 C    0.107
    14   6 C    3.992 --    12 C    1.442    13 C    1.428    19 H    0.971
                             9 C    0.106
    15   1 H    0.999 --    10 C    0.961
    16   1 H    0.999 --    11 C    0.962
    17   1 H    0.999 --    12 C    0.970
    18   1 H    0.999 --    13 C    0.970
    19   1 H    0.998 --    14 C    0.971
    20   6 C    3.995 --     1 P    1.031    23 C    1.016    22 H    0.956
                            21 H    0.949
    21   1 H    0.998 --    20 C    0.949
    22   1 H    0.998 --    20 C    0.956
    23   6 C    3.997 --    20 C    1.016    25 H    0.985    26 H    0.985
                            24 H    0.983
    24   1 H    0.998 --    23 C    0.983
    25   1 H    0.998 --    23 C    0.985
    26   1 H    0.999 --    23 C    0.985
 ---------------------------------------------------------------------------

Topologies differ in total number of bonds
Writing topology from bond orders to xtbtopo.mol

molecular dipole:
                 x           y           z       tot (Debye)
 q only:       -0.219      -0.101      -0.207
   full:       -0.318      -0.396      -0.414       1.664
molecular quadrupole (traceless):
                xx          xy          yy          xz          yz          zz
 q only:       -3.674      -0.376      -0.957       0.560       0.495       4.632
  q+dip:       -7.725      -5.778      -1.812      -0.049       2.860       9.537
   full:       -6.115      -3.845      -1.935      -0.033       2.606       8.050

           -------------------------------------------------
          |                Geometry Summary                 |
           -------------------------------------------------

      molecular mass/u    :      166.2002322
   center of mass at/Å    :        2.6943916      -1.5391437      -3.6877949
  moments of inertia/u·Å² :        0.3630762E+03   0.7196513E+03   0.8730824E+03
rotational constants/cm⁻¹ :        0.4643001E-01   0.2342472E-01   0.1930818E-01

 * 24 selected distances

     #   Z          #   Z                                           value/Å
     2   6 C        3   1 H                                       1.0937056
     2   6 C        4   1 H                                       1.0939863
     2   6 C        5   6 C                                       1.5224416
     5   6 C        6   1 H                                       1.0886540
     5   6 C        7   1 H                                       1.0870926
     5   6 C        8   1 H                                       1.0890681
     9   6 C       10   6 C                                       1.3889311
     9   6 C       11   6 C                                       1.3937971
    10   6 C       12   6 C                                       1.3847550
    11   6 C       13   6 C                                       1.3808526
    12   6 C       14   6 C                                       1.3835508
    13   6 C       14   6 C                                       1.3857350
    10   6 C       15   1 H                                       1.0793037 (min)
    11   6 C       16   1 H                                       1.0821120
    12   6 C       17   1 H                                       1.0809735
    13   6 C       18   1 H                                       1.0806020
    14   6 C       19   1 H                                       1.0801933
     1  15 P       20   6 C                                       1.8631358 (max)
    20   6 C       21   1 H                                       1.0920274
    20   6 C       22   1 H                                       1.0943081
    20   6 C       23   6 C                                       1.5243432
    23   6 C       24   1 H                                       1.0884257
    23   6 C       25   1 H                                       1.0880602
    23   6 C       26   1 H                                       1.0891851

 * 3 distinct bonds (by element types)

   Z      Z             #   av. dist./Å        max./Å        min./Å
   1 H    6 C          15     1.0871798     1.0943081     1.0793037
   6 C    6 C           8     1.4205508     1.5243432     1.3808526
   6 C   15 P           1     1.8631358     1.8631358     1.8631358

           -------------------------------------------------
          |               Frequency Printout                |
           -------------------------------------------------
 projected vibrational frequencies (cm⁻¹)
eigval :       -0.00    -0.00    -0.00     0.00     0.00     0.00
eigval :       24.75    64.09    84.54   113.34   161.35   170.35
eigval :      201.64   222.56   248.10   262.05   315.22   361.08
eigval :      366.18   393.02   472.95   585.87   648.63   659.29
eigval :      679.02   690.62   736.47   760.67   769.37   872.94
eigval :      896.14   925.87   931.68   967.53   982.04   995.04
eigval :     1013.50  1017.16  1063.75  1077.74  1084.83  1115.13
eigval :     1123.26  1181.72  1203.73  1222.59  1230.95  1249.98
eigval :     1268.60  1280.16  1317.25  1407.71  1412.81  1421.50
eigval :     1448.77  1451.25  1462.02  1496.50  1499.47  1504.91
eigval :     1506.72  1578.20  1589.28  2936.06  2941.10  2951.52
eigval :     2954.95  3011.85  3012.30  3023.40  3025.17  3034.08
eigval :     3041.12  3053.99  3067.35  3074.31  3086.68  3093.26
 reduced masses (amu)
   1: 15.00   2: 10.77   3: 13.62   4: 14.89   5: 11.42   6: 12.21   7:  9.92   8:  8.78
   9:  8.99  10:  9.73  11:  7.10  12:  6.56  13:  7.23  14:  6.92  15:  6.38  16:  8.79
  17: 13.08  18: 12.87  19: 10.44  20: 18.48  21: 12.80  22: 11.18  23: 13.91  24: 11.27
  25: 14.01  26: 12.63  27:  3.36  28:  6.98  29:  4.73  30:  3.30  31:  3.57  32:  4.14
  33:  2.97  34: 10.38  35:  3.27  36:  3.13  37:  3.64  38:  4.40  39:  9.55  40:  9.07
  41:  8.29  42:  8.50  43:  4.39  44:  1.31  45:  1.90  46:  3.63  47:  3.25  48:  4.26
  49:  4.13  50:  3.44  51: 11.94  52:  2.90  53:  2.94  54:  8.53  55:  2.39  56:  4.25
  57:  5.65  58:  1.53  59:  1.56  60:  1.56  61:  1.54  62: 11.43  63: 11.44  64:  1.93
  65:  1.98  66:  1.52  67:  1.51  68:  1.83  69:  1.87  70:  1.89  71:  1.70  72:  1.43
  73:  1.57  74:  1.80  75:  1.77  76:  1.83  77:  1.88  78:  1.86
 IR intensities (km·mol⁻¹)
   1:  0.20   2:  0.13   3:  0.08   4:  0.00   5:  0.02   6:  0.12   7:  0.11   8:  0.03
   9:  0.10  10:  0.24  11:  0.09  12:  0.14  13:  0.15  14:  0.15  15:  0.12  16:  0.61
  17:  0.23  18:  0.69  19:  0.22  20:  0.80  21:  5.11  22:  0.04  23: 11.93  24:  8.15
  25:  8.30  26: 10.80  27: 19.76  28: 38.71  29: 19.30  30:  0.13  31:  0.10  32:  0.08
  33:  0.00  34:  1.30  35:  4.51  36:  2.65  37:  0.72  38:  4.61  39:  5.92  40:  7.41
  41:  0.31  42:  1.43  43:  0.03  44:  0.02  45:  0.64  46:  1.74  47:  1.95  48:  7.17
  49:  6.81  50:  0.80  51:  0.38  52:  1.58  53:  2.13  54:  0.92  55:  0.40  56:  0.47
  57:  0.09  58:  2.09  59:  1.26  60:  1.20  61:  2.16  62:  0.35  63:  4.33  64:  4.08
  65: 43.09  66: 14.38  67: 22.64  68: 54.41  69: 46.05  70: 22.77  71: 30.56  72: 16.63
  73: 23.83  74: 16.37  75:  8.54  76: 48.62  77: 79.10  78: 23.74
 Raman intensities (Ä⁴*amu⁻¹)
   1:  0.00   2:  0.00   3:  0.00   4:  0.00   5:  0.00   6:  0.00   7:  0.00   8:  0.00
   9:  0.00  10:  0.00  11:  0.00  12:  0.00  13:  0.00  14:  0.00  15:  0.00  16:  0.00
  17:  0.00  18:  0.00  19:  0.00  20:  0.00  21:  0.00  22:  0.00  23:  0.00  24:  0.00
  25:  0.00  26:  0.00  27:  0.00  28:  0.00  29:  0.00  30:  0.00  31:  0.00  32:  0.00
  33:  0.00  34:  0.00  35:  0.00  36:  0.00  37:  0.00  38:  0.00  39:  0.00  40:  0.00
  41:  0.00  42:  0.00  43:  0.00  44:  0.00  45:  0.00  46:  0.00  47:  0.00  48:  0.00
  49:  0.00  50:  0.00  51:  0.00  52:  0.00  53:  0.00  54:  0.00  55:  0.00  56:  0.00
  57:  0.00  58:  0.00  59:  0.00  60:  0.00  61:  0.00  62:  0.00  63:  0.00  64:  0.00
  65:  0.00  66:  0.00  67:  0.00  68:  0.00  69:  0.00  70:  0.00  71:  0.00  72:  0.00
  73:  0.00  74:  0.00  75:  0.00  76:  0.00  77:  0.00  78:  0.00
 output can be read by thermo (or use thermo option).
 writing <g98.out> molden fake output.
 recommended (thermochemical) frequency scaling factor: 1.0
           -------------------------------------------------
          |             Thermodynamic Functions             |
           -------------------------------------------------

Refinement of some symmetry elements was terminated before convergence was reached.
Some symmetry elements may remain unidentified.
Molecule has no symmetry elements
It seems to be the C1 point group
c1  symmetry found (for desy threshold:  0.10E+00) used in thermo

          ...................................................
          :                      SETUP                      :
          :.................................................:
          :  # frequencies                          72      :
          :  # imaginary freq.                       0      :
          :  linear?                             false      :
          :  only rotor calc.                    false      :
          :  symmetry                               c1      :
          :  rotational number                       1      :
          :  scaling factor                  1.0000000      :
          :  rotor cutoff                   50.0000000 cm⁻¹ :
          :  imag. cutoff                  -20.0000000 cm⁻¹ :
          :.................................................:

    mode    ω/cm⁻¹     T·S(HO)/kcal·mol⁻¹    T·S(FR)/kcal·mol⁻¹   T·S(vib)
   ------------------------------------------------------------------------
       1     24.75    -1.85193 (  5.66%)    -1.26460 ( 94.34%)    -1.29785
       2     64.09    -1.29015 ( 72.97%)    -0.98290 ( 27.03%)    -1.20709
       3     84.54    -1.12778 ( 89.10%)    -0.90087 ( 10.90%)    -1.10304
       4    113.34    -0.95731 ( 96.35%)    -0.81404 (  3.65%)    -0.95208
       5    161.35    -0.75548 ( 99.09%)    -0.70944 (  0.91%)    -0.75506
       6    170.35    -0.72499 ( 99.26%)    -0.69337 (  0.74%)    -0.72476
       7    201.64    -0.63150 ( 99.62%)    -0.64341 (  0.38%)    -0.63155
       8    222.56    -0.57786 ( 99.75%)    -0.61417 (  0.25%)    -0.57795
       9    248.10    -0.51999 ( 99.84%)    -0.58200 (  0.16%)    -0.52009
      10    262.05    -0.49137 ( 99.87%)    -0.56579 (  0.13%)    -0.49147
   ------------------------------------------------------------------------

   temp. (K)  partition function   enthalpy   heat capacity  entropy
                                   cal/mol     cal/K/mol   cal/K/mol   J/K/mol
 298.15  VIB  0.146E+05             6121.807     39.475     37.355
         ROT  0.115E+07              888.752      2.981     30.720
         INT  0.169E+11             7010.559     42.456     68.075
         TR   0.207E+28             1481.254      4.968     41.214
         TOT                        8491.8129    47.4245   109.2888   457.2644

       T/K    H(0)-H(T)+PV         H(T)/Eh          T*S/Eh         G(T)/Eh
   ------------------------------------------------------------------------
    298.15    0.135326E-01    0.232462E+00    0.519266E-01    0.180536E+00
   ------------------------------------------------------------------------

         :::::::::::::::::::::::::::::::::::::::::::::::::::::
         ::                  THERMODYNAMIC                  ::
         :::::::::::::::::::::::::::::::::::::::::::::::::::::
         :: total free energy         -31.375126268995 Eh   ::
         ::.................................................::
         :: total energy              -31.555661839684 Eh   ::
         :: zero point energy           0.218929645865 Eh   ::
         :: G(RRHO) w/o ZPVE           -0.038394075176 Eh   ::
         :: G(RRHO) contrib.            0.180535570689 Eh   ::
         :::::::::::::::::::::::::::::::::::::::::::::::::::::

optimized geometry written to: xtbopt.xyz


           -------------------------------------------------
          | TOTAL ENERGY              -31.555661839684 Eh   |
          | TOTAL ENTHALPY            -31.323199628527 Eh   |
          | TOTAL FREE ENERGY         -31.375126268995 Eh   |
          | GRADIENT NORM               0.000048314093 Eh/α |
          | HOMO-LUMO GAP               3.648376462615 eV   |
           -------------------------------------------------

------------------------------------------------------------------------
 * finished run on 2025/07/14 at 11:38:51.503     
------------------------------------------------------------------------
 total:
 * wall-time:     0 d,  0 h,  0 min,  9.199 sec
 *  cpu-time:     0 d,  0 h,  1 min, 35.287 sec
 * ratio c/w:    10.359 speedup
 SCF:
 * wall-time:     0 d,  0 h,  0 min,  0.087 sec
 *  cpu-time:     0 d,  0 h,  0 min,  1.044 sec
 * ratio c/w:    11.967 speedup
 ANC optimizer:
 * wall-time:     0 d,  0 h,  0 min,  5.792 sec
 *  cpu-time:     0 d,  0 h,  1 min,  7.698 sec
 * ratio c/w:    11.689 speedup
 analytical hessian:
 * wall-time:     0 d,  0 h,  0 min,  3.311 sec
 *  cpu-time:     0 d,  0 h,  0 min, 26.448 sec
 * ratio c/w:     7.989 speedup

