      -----------------------------------------------------------      
     |                   =====================                   |     
     |                           x T B                           |     
     |                   =====================                   |     
     |                         S. Grimme                         |     
     |          Mulliken Center for Theoretical Chemistry        |     
     |                    University of Bonn                     |     
      -----------------------------------------------------------      

   * xtb version 6.7.0 (08769fc) compiled by 'albert@albert-system' on 2024-03-04

   xtb is free software: you can redistribute it and/or modify it under
   the terms of the GNU Lesser General Public License as published by
   the Free Software Foundation, either version 3 of the License, or
   (at your option) any later version.
   
   xtb is distributed in the hope that it will be useful,
   but WITHOUT ANY WARRANTY; without even the implied warranty of
   MERCHANTABILITY or FITNESS FOR A PARTICULAR PURPOSE.  See the
   GNU Lesser General Public License for more details.
   
   Cite this work as:
   * C. Bannwarth, E. Caldeweyher, S. Ehlert, A. Hansen, P. Pracht,
     J. Seibert, S. Spicher, S. Grimme, WIREs Comput. Mol. Sci., 2020, 11,
     e01493. DOI: 10.1002/wcms.1493
   
   for GFN2-xTB:
   * C. Bannwarth, S. Ehlert and S. Grimme., J. Chem. Theory Comput., 2019,
     15, 1652-1671. DOI: 10.1021/acs.jctc.8b01176
   for GFN1-xTB:
   * S. Grimme, C. Bannwarth, P. Shushkov, J. Chem. Theory Comput., 2017,
     13, 1989-2009. DOI: 10.1021/acs.jctc.7b00118
   for GFN0-xTB:
   * P. Pracht, E. Caldeweyher, S. Ehlert, S. Grimme, ChemRxiv, 2019, preprint.
     DOI: 10.26434/chemrxiv.8326202.v1
   for GFN-FF:
   * S. Spicher and S. Grimme, Angew. Chem. Int. Ed., 2020, 59, 15665-15673.
     DOI: 10.1002/anie.202004239
   
   for ALPB and GBSA implicit solvation:
   * S. Ehlert, M. Stahn, S. Spicher, S. Grimme, J. Chem. Theory Comput.,
     2021, 17, 4250-4261. DOI: 10.1021/acs.jctc.1c00471
   
   for ddCOSMO and CPCM-X implicit solvation:
   * M. Stahn, S. Ehlert, S. Grimme, J. Phys. Chem. A,
     2023, XX, XXXX-XXXX. DOI: 10.1021/acs.jpca.3c04382
   
   for DFT-D4:
   * E. Caldeweyher, C. Bannwarth and S. Grimme, J. Chem. Phys., 2017,
     147, 034112. DOI: 10.1063/1.4993215
   * E. Caldeweyher, S. Ehlert, A. Hansen, H. Neugebauer, S. Spicher,
     C. Bannwarth and S. Grimme, J. Chem. Phys., 2019, 150, 154122.
     DOI: 10.1063/1.5090222
   * E. Caldeweyher, J.-M. Mewes, S. Ehlert and S. Grimme, Phys. Chem. Chem. Phys.
     2020, 22, 8499-8512. DOI: 10.1039/D0CP00502A
   
   for sTDA-xTB:
   * S. Grimme and C. Bannwarth, J. Chem. Phys., 2016, 145, 054103.
     DOI: 10.1063/1.4959605
   
   in the mass-spec context:
   * V. Asgeirsson, C. Bauer and S. Grimme, Chem. Sci., 2017, 8, 4879.
     DOI: 10.1039/c7sc00601b
   * J. Koopman and S. Grimme, ACS Omega 2019, 4, 12, 15120-15133.
     DOI: 10.1021/acsomega.9b02011
   
   for metadynamics refer to:
   * S. Grimme, J. Chem. Theory Comput., 2019, 155, 2847-2862
     DOI: 10.1021/acs.jctc.9b00143
   
   for SPH calculations refer to:
   * S. Spicher and S. Grimme, J. Chem. Theory Comput., 2021, 17, 1701-1714
     DOI: 10.1021/acs.jctc.0c01306
   
   for ONIOM refer to:
   * C. Plett, A. Katbashev, S. Ehlert, S. Grimme, M. Bursch,
     Phys. Chem. Chem. Phys., 2023, 25, 17860-17868. DOI: 10.1039/D3CP02178E
   
   for DIPRO refer to:
   * J. Kohn, N. Gildemeister, S. Grimme, D. Fazzi, A. Hansen,
     J. Chem. Phys., 2023, just accepted.
   
   for PTB refer to:
   * S. Grimme, M. Mueller, A. Hansen, J. Chem. Phys., 2023, 158, 124111.
     DOI: 10.1063/5.0137838
   
   with help from (in alphabetical order)
   P. Atkinson, C. Bannwarth, F. Bohle, G. Brandenburg, E. Caldeweyher
   M. Checinski, S. Dohm, S. Ehlert, S. Ehrlich, I. Gerasimov, C. Hölzer
   A. Katbashev, J. Kohn, J. Koopman, C. Lavigne, S. Lehtola, F. März, M. Müller,
   F. Musil, H. Neugebauer, J. Pisarek, C. Plett, P. Pracht, F. Pultar,
   J. Seibert, P. Shushkov, S. Spicher, M. Stahn, M. Steiner, T. Strunk,
   J. Stückrath, T. Rose, and J. Unsleber
   
 * started run on 2025/07/14 at 11:33:43.382     
   ID    Z sym.   atoms
    1   15 P      1
    2    6 C      2, 5, 9-14, 20, 23
    3    1 H      3, 4, 6-8, 15-19, 21, 22, 24-26

           -------------------------------------------------
          |                Calculation Setup                |
           -------------------------------------------------

          program call               : /home/minenky/programs/xtb/xtb-dist/bin/xtb m1_00_PEt2Ph-PBE0-D3-TZ-uniMM_49.xyz --charge 0 --T --ohess extreme --cycles 5000 --acc 0.01 --iterations 5000
          coordinate file            : m1_00_PEt2Ph-PBE0-D3-TZ-uniMM_49.xyz
          omp threads                :                    12

########################################################################
[WARNING] Please study the warnings concerning your input carefully
-1- prog_main_parseArguments: Unknown option '--T' provided
########################################################################

           -------------------------------------------------
          |                 G F N 2 - x T B                 |
           -------------------------------------------------

        Reference                      10.1021/acs.jctc.8b01176
      * Hamiltonian:
        H0-scaling (s, p, d)           1.850000    2.230000    2.230000
        zeta-weighting                 0.500000
      * Dispersion:
        s8                             2.700000
        a1                             0.520000
        a2                             5.000000
        s9                             5.000000
      * Repulsion:
        kExp                           1.500000    1.000000
        rExp                           1.000000
      * Coulomb:
        alpha                          2.000000
        third order                    shell-resolved
        anisotropic                    true
        a3                             3.000000
        a5                             4.000000
        cn-shift                       1.200000
        cn-exp                         4.000000
        max-rad                        5.000000


          ...................................................
          :                      SETUP                      :
          :.................................................:
          :  # basis functions                  65          :
          :  # atomic orbitals                  64          :
          :  # shells                           38          :
          :  # electrons                        60          :
          :  max. iterations                  5000          :
          :  Hamiltonian                  GFN2-xTB          :
          :  restarted?                      false          :
          :  GBSA solvation                  false          :
          :  PC potential                    false          :
          :  electronic temp.          300.0000000     K    :
          :  accuracy                    0.0100000          :
          :  -> integral cutoff          0.4500000E+02      :
          :  -> integral neglect         0.1000000E-09      :
          :  -> SCF convergence          0.1000000E-07 Eh   :
          :  -> wf. convergence          0.1000000E-05 e    :
          :  Broyden damping             0.4000000          :
          :  net charge                          0          :
          :  unpaired electrons                  0          :
          ...................................................

 iter      E             dE          RMSdq      gap      omega  full diag
   1    -32.0113398 -0.320113E+02  0.370E+00    3.95       0.0  T
   2    -32.0548008 -0.434609E-01  0.218E+00    3.52       1.0  T
   3    -32.0548295 -0.287871E-04  0.886E-01    3.26       1.0  T
   4    -32.0558089 -0.979314E-03  0.270E-01    3.30       1.0  T
   5    -32.0568727 -0.106388E-02  0.111E-01    3.34       1.0  T
   6    -32.0570606 -0.187866E-03  0.444E-02    3.33       1.0  T
   7    -32.0570791 -0.184536E-04  0.155E-02    3.33       1.3  T
   8    -32.0570797 -0.587406E-06  0.681E-03    3.33       2.9  T
   9    -32.0570801 -0.435230E-06  0.152E-03    3.33      12.9  T
  10    -32.0570801 -0.239259E-07  0.568E-04    3.33      34.5  T
  11    -32.0570801 -0.246082E-09  0.224E-04    3.33      87.7  T
  12    -32.0570801 -0.540510E-09  0.676E-05    3.33     290.1  T
  13    -32.0570801 -0.123563E-10  0.244E-05    3.33     802.8  T
  14    -32.0570801 -0.115818E-11  0.105E-05    3.33    1861.0  T
  15    -32.0570801 -0.568434E-12  0.319E-06    3.33    6140.9  T
  16    -32.0570801 -0.113687E-12  0.164E-06    3.33   11936.9  T

   *** convergence criteria satisfied after 16 iterations ***

         #    Occupation            Energy/Eh            Energy/eV
      -------------------------------------------------------------
         1        2.0000           -0.6610139             -17.9871
       ...           ...                  ...                  ...
        24        2.0000           -0.4394924             -11.9592
        25        2.0000           -0.4262831             -11.5998
        26        2.0000           -0.4157774             -11.3139
        27        2.0000           -0.4093347             -11.1386
        28        2.0000           -0.4032051             -10.9718
        29        2.0000           -0.4019097             -10.9365
        30        2.0000           -0.3544011              -9.6437 (HOMO)
        31                         -0.2320122              -6.3134 (LUMO)
        32                         -0.2232164              -6.0740
        33                         -0.1466934              -3.9917
        34                         -0.1390655              -3.7842
        35                         -0.0962036              -2.6178
       ...                                ...                  ...
        64                          0.7890814              21.4720
      -------------------------------------------------------------
                  HL-Gap            0.1223888 Eh            3.3304 eV
             Fermi-level           -0.2932066 Eh           -7.9786 eV

 SCC (total)                   0 d,  0 h,  0 min,  0.087 sec
 SCC setup                      ...        0 min,  0.000 sec (  0.160%)
 Dispersion                     ...        0 min,  0.000 sec (  0.243%)
 classical contributions        ...        0 min,  0.000 sec (  0.068%)
 integral evaluation            ...        0 min,  0.002 sec (  2.181%)
 iterations                     ...        0 min,  0.082 sec ( 95.068%)
 molecular gradient             ...        0 min,  0.002 sec (  2.168%)
 printout                       ...        0 min,  0.000 sec (  0.089%)

         :::::::::::::::::::::::::::::::::::::::::::::::::::::
         ::                     SUMMARY                     ::
         :::::::::::::::::::::::::::::::::::::::::::::::::::::
         :: total energy             -31.542065015164 Eh    ::
         :: gradient norm              0.048408478528 Eh/a0 ::
         :: HOMO-LUMO gap              3.330369688177 eV    ::
         ::.................................................::
         :: SCC energy               -32.056899870799 Eh    ::
         :: -> isotropic ES            0.004201844158 Eh    ::
         :: -> anisotropic ES          0.006282591454 Eh    ::
         :: -> anisotropic XC          0.022356106178 Eh    ::
         :: -> dispersion             -0.024454602274 Eh    ::
         :: repulsion energy           0.514834855635 Eh    ::
         :: add. restraining           0.000000000000 Eh    ::
         :: total charge               0.000000000000 e     ::
         :::::::::::::::::::::::::::::::::::::::::::::::::::::

      ----------------------------------------------------------- 
     |                   =====================                   |
     |                        A N C O P T                        |
     |                   =====================                   |
     |               Approximate Normal Coordinate               |
     |                Rational Function Optimizer                |
      ----------------------------------------------------------- 
      ----------------------------------------------------------- 
     |                   =====================                   |
     |                        A N C O P T                        |
     |                   =====================                   |
     |               Approximate Normal Coordinate               |
     |                Rational Function Optimizer                |
      ----------------------------------------------------------- 

          ...................................................
          :                      SETUP                      :
          :.................................................:
          :   optimization level           extreme          :
          :   max. optcycles                  5000          :
          :   ANC micro-cycles                  20          :
          :   degrees of freedom                72          :
          :.................................................:
          :   RF solver                   davidson          :
          :   write xtbopt.log                true          :
          :   linear?                        false          :
          :   energy convergence         0.5000000E-07 Eh   :
          :   grad. convergence          0.5000000E-04 Eh/α :
          :   maxmium RF displ.          1.0000000          :
          :   Hlow (freq-cutoff)         0.1000000E-01      :
          :   Hmax (freq-cutoff)         5.0000000          :
          :   S6 in model hess.         20.0000000          :
          ...................................................

generating ANC from model Hessian ...
Using Lindh-Hessian (1995)
 Shifting diagonal of input Hessian by   1.139403044391826E-002
 Lowest  eigenvalues of input Hessian
    0.010000    0.010267    0.000000    0.000000    0.000000    0.000000
    0.000000    0.000000    0.012467    0.012544    0.013237    0.014789
    0.016841    0.019418    0.020039    0.021876    0.025593    0.026043
 Highest eigenvalues
    1.348947    1.536949    1.564173    1.866008    1.967983    1.987635
 

........................................................................
.............................. CYCLE    1 ..............................
........................................................................

 iter      E             dE          RMSdq      gap      omega  full diag
   1    -32.0570801 -0.320571E+02  0.630E-07    3.33       0.0  T
   2    -32.0570801 -0.710543E-14  0.311E-07    3.33   63109.7  T
   3    -32.0570801  0.213163E-13  0.237E-07    3.33   82767.0  T
     SCC iter.                  ...        0 min,  0.073 sec
     gradient                   ...        0 min,  0.002 sec
 * total energy  :   -31.5420650 Eh     change        0.2842171E-13 Eh
   gradient norm :     0.0484085 Eh/α   predicted     0.0000000E+00 (-100.00%)
   displ. norm   :     0.4950602 α      lambda       -0.1353929E-01
   maximum displ.:     0.2895238 α      in ANC's #1, #2, #13, ...

........................................................................
.............................. CYCLE    2 ..............................
........................................................................

 iter      E             dE          RMSdq      gap      omega  full diag
   1    -32.0675874 -0.320676E+02  0.421E-01    3.56       0.0  T
   2    -32.0678464 -0.259025E-03  0.196E-01    3.61       1.0  T
   3    -32.0678466 -0.183361E-06  0.844E-02    3.64       1.0  T
   4    -32.0678741 -0.274616E-04  0.414E-02    3.64       1.0  T
   5    -32.0678890 -0.149210E-04  0.119E-02    3.64       1.7  T
   6    -32.0678904 -0.144477E-05  0.410E-03    3.64       4.8  T
   7    -32.0678904 -0.279219E-07  0.166E-03    3.64      11.8  T
   8    -32.0678905 -0.131073E-07  0.612E-04    3.64      32.0  T
   9    -32.0678905 -0.541729E-08  0.180E-04    3.64     108.8  T
  10    -32.0678905 -0.388582E-09  0.655E-05    3.64     299.5  T
  11    -32.0678905 -0.118447E-10  0.274E-05    3.64     716.5  T
  12    -32.0678905 -0.445510E-11  0.982E-06    3.64    1996.3  T
  13    -32.0678905 -0.355271E-12  0.449E-06    3.64    4371.5  T
     SCC iter.                  ...        0 min,  0.075 sec
     gradient                   ...        0 min,  0.002 sec
 * total energy  :   -31.5497664 Eh     change       -0.7701385E-02 Eh
   gradient norm :     0.0184070 Eh/α   predicted    -0.8428812E-02 (   9.45%)
   displ. norm   :     0.4129266 α      lambda       -0.3202552E-02
   maximum displ.:     0.2692815 α      in ANC's #1, #2, #10, ...

........................................................................
.............................. CYCLE    3 ..............................
........................................................................

 iter      E             dE          RMSdq      gap      omega  full diag
   1    -32.0705208 -0.320705E+02  0.132E-01    3.63       0.0  T
   2    -32.0705274 -0.656909E-05  0.762E-02    3.63       1.0  T
   3    -32.0705262  0.115565E-05  0.158E-02    3.63       1.2  T
   4    -32.0705276 -0.138426E-05  0.689E-03    3.63       2.8  T
   5    -32.0705284 -0.794049E-06  0.147E-03    3.63      13.4  T
   6    -32.0705284 -0.833652E-08  0.870E-04    3.63      22.5  T
   7    -32.0705284 -0.288886E-08  0.296E-04    3.63      66.3  T
   8    -32.0705284 -0.170132E-09  0.127E-04    3.63     154.2  T
   9    -32.0705284  0.233058E-11  0.615E-05    3.63     318.8  T
  10    -32.0705284 -0.457376E-10  0.177E-05    3.63    1105.9  T
  11    -32.0705284 -0.212452E-11  0.976E-06    3.63    2009.4  T
  12    -32.0705284 -0.881073E-12  0.330E-06    3.63    5943.2  T
     SCC iter.                  ...        0 min,  0.075 sec
     gradient                   ...        0 min,  0.002 sec
 * total energy  :   -31.5522191 Eh     change       -0.2452708E-02 Eh
   gradient norm :     0.0090176 Eh/α   predicted    -0.1874720E-02 ( -23.57%)
   displ. norm   :     0.5048034 α      lambda       -0.2447121E-02
   maximum displ.:     0.3170916 α      in ANC's #1, #2, #8, ...

........................................................................
.............................. CYCLE    4 ..............................
........................................................................

 iter      E             dE          RMSdq      gap      omega  full diag
   1    -32.0707603 -0.320708E+02  0.118E-01    3.66       0.0  T
   2    -32.0707680 -0.770981E-05  0.720E-02    3.66       1.0  T
   3    -32.0707618  0.626919E-05  0.200E-02    3.67       1.0  T
   4    -32.0707690 -0.728841E-05  0.104E-02    3.67       1.9  T
   5    -32.0707702 -0.118470E-05  0.238E-03    3.67       8.2  T
   6    -32.0707704 -0.124141E-06  0.978E-04    3.67      20.1  T
   7    -32.0707704 -0.306117E-08  0.452E-04    3.67      43.4  T
   8    -32.0707704 -0.735227E-09  0.169E-04    3.67     116.1  T
   9    -32.0707704 -0.181345E-09  0.726E-05    3.67     270.1  T
  10    -32.0707704 -0.168257E-10  0.312E-05    3.67     628.6  T
  11    -32.0707704 -0.397904E-11  0.903E-06    3.67    2171.2  T
  12    -32.0707704 -0.198952E-12  0.274E-06    3.67    7151.9  T
     SCC iter.                  ...        0 min,  0.074 sec
     gradient                   ...        0 min,  0.002 sec
 * total energy  :   -31.5539561 Eh     change       -0.1737017E-02 Eh
   gradient norm :     0.0097061 Eh/α   predicted    -0.1535359E-02 ( -11.61%)
   displ. norm   :     0.4103266 α      lambda       -0.1141971E-02
   maximum displ.:     0.2843254 α      in ANC's #1, #2, #8, ...

........................................................................
.............................. CYCLE    5 ..............................
........................................................................

 iter      E             dE          RMSdq      gap      omega  full diag
   1    -32.0718935 -0.320719E+02  0.791E-02    3.65       0.0  T
   2    -32.0718971 -0.351426E-05  0.485E-02    3.64       1.0  T
   3    -32.0718924  0.461196E-05  0.159E-02    3.63       1.2  T
   4    -32.0718980 -0.554988E-05  0.505E-03    3.64       3.9  T
   5    -32.0718983 -0.280037E-06  0.187E-03    3.64      10.5  T
   6    -32.0718983 -0.240980E-07  0.935E-04    3.64      21.0  T
   7    -32.0718983 -0.231837E-08  0.246E-04    3.64      79.7  T
   8    -32.0718983 -0.210505E-09  0.117E-04    3.64     167.0  T
   9    -32.0718983 -0.961720E-10  0.406E-05    3.64     482.9  T
  10    -32.0718983 -0.446221E-11  0.186E-05    3.64    1052.4  T
  11    -32.0718983 -0.161293E-11  0.679E-06    3.64    2889.5  T
  12    -32.0718983 -0.163425E-12  0.264E-06    3.64    7432.5  T
     SCC iter.                  ...        0 min,  0.074 sec
     gradient                   ...        0 min,  0.002 sec
 * total energy  :   -31.5547697 Eh     change       -0.8135609E-03 Eh
   gradient norm :     0.0094357 Eh/α   predicted    -0.6671216E-03 ( -18.00%)
   displ. norm   :     0.3207121 α      lambda       -0.6086665E-03
   maximum displ.:     0.2167692 α      in ANC's #1, #8, #2, ...

........................................................................
.............................. CYCLE    6 ..............................
........................................................................

 iter      E             dE          RMSdq      gap      omega  full diag
   1    -32.0740254 -0.320740E+02  0.652E-02    3.64       0.0  T
   2    -32.0740272 -0.183965E-05  0.387E-02    3.64       1.0  T
   3    -32.0740263  0.912390E-06  0.109E-02    3.64       1.8  T
   4    -32.0740275 -0.123420E-05  0.340E-03    3.64       5.8  T
   5    -32.0740276 -0.993849E-07  0.170E-03    3.64      11.6  T
   6    -32.0740277 -0.400297E-07  0.579E-04    3.64      33.9  T
   7    -32.0740277 -0.462713E-09  0.156E-04    3.64     125.7  T
   8    -32.0740277 -0.122249E-09  0.599E-05    3.64     327.5  T
   9    -32.0740277 -0.150067E-10  0.241E-05    3.64     813.1  T
  10    -32.0740277 -0.164846E-11  0.118E-05    3.64    1658.8  T
  11    -32.0740277 -0.454747E-12  0.334E-06    3.64    5864.2  T
  12    -32.0740277 -0.781597E-13  0.130E-06    3.64   15115.6  T
     SCC iter.                  ...        0 min,  0.074 sec
     gradient                   ...        0 min,  0.002 sec
 * total energy  :   -31.5552008 Eh     change       -0.4310805E-03 Eh
   gradient norm :     0.0062414 Eh/α   predicted    -0.3356363E-03 ( -22.14%)
   displ. norm   :     0.2284933 α      lambda       -0.2967955E-03
   maximum displ.:     0.1573871 α      in ANC's #1, #8, #2, ...

........................................................................
.............................. CYCLE    7 ..............................
........................................................................

 iter      E             dE          RMSdq      gap      omega  full diag
   1    -32.0763120 -0.320763E+02  0.529E-02    3.64       0.0  T
   2    -32.0763132 -0.115438E-05  0.333E-02    3.64       1.0  T
   3    -32.0763128  0.416916E-06  0.720E-03    3.64       2.7  T
   4    -32.0763134 -0.583607E-06  0.204E-03    3.64       9.6  T
   5    -32.0763134 -0.403589E-07  0.112E-03    3.64      17.5  T
   6    -32.0763134 -0.155280E-07  0.390E-04    3.64      50.3  T
   7    -32.0763134  0.291038E-10  0.130E-04    3.64     150.7  T
   8    -32.0763134 -0.220936E-09  0.368E-05    3.64     532.7  T
   9    -32.0763134 -0.726885E-11  0.197E-05    3.64     994.6  T
  10    -32.0763134 -0.432010E-11  0.835E-06    3.64    2348.5  T
  11    -32.0763134 -0.149214E-12  0.292E-06    3.64    6716.5  T
     SCC iter.                  ...        0 min,  0.074 sec
     gradient                   ...        0 min,  0.002 sec
 * total energy  :   -31.5553975 Eh     change       -0.1967595E-03 Eh
   gradient norm :     0.0029451 Eh/α   predicted    -0.1561458E-03 ( -20.64%)
   displ. norm   :     0.1472340 α      lambda       -0.9866090E-04
   maximum displ.:     0.0904883 α      in ANC's #1, #8, #5, ...

........................................................................
.............................. CYCLE    8 ..............................
........................................................................

 iter      E             dE          RMSdq      gap      omega  full diag
   1    -32.0767325 -0.320767E+02  0.409E-02    3.64       0.0  T
   2    -32.0767330 -0.507387E-06  0.249E-02    3.64       1.0  T
   3    -32.0767329  0.862628E-07  0.382E-03    3.64       5.1  T
   4    -32.0767331 -0.135065E-06  0.168E-03    3.64      11.6  T
   5    -32.0767331 -0.143284E-07  0.643E-04    3.64      30.5  T
   6    -32.0767331 -0.646789E-08  0.264E-04    3.64      74.2  T
   7    -32.0767331 -0.938627E-11  0.746E-05    3.64     262.9  T
   8    -32.0767331 -0.838156E-10  0.203E-05    3.64     966.0  T
   9    -32.0767331 -0.313349E-11  0.103E-05    3.64    1907.0  T
  10    -32.0767331 -0.100897E-11  0.447E-06    3.64    4386.3  T
  11    -32.0767331 -0.994760E-13  0.184E-06    3.64   10630.1  T
     SCC iter.                  ...        0 min,  0.074 sec
     gradient                   ...        0 min,  0.002 sec
 * total energy  :   -31.5554648 Eh     change       -0.6729623E-04 Eh
   gradient norm :     0.0026697 Eh/α   predicted    -0.5040135E-04 ( -25.11%)
   displ. norm   :     0.0999912 α      lambda       -0.4939573E-04
   maximum displ.:     0.0564877 α      in ANC's #5, #1, #4, ...

........................................................................
.............................. CYCLE    9 ..............................
........................................................................

 iter      E             dE          RMSdq      gap      omega  full diag
   1    -32.0771107 -0.320771E+02  0.338E-02    3.64       0.0  T
   2    -32.0771110 -0.222031E-06  0.194E-02    3.64       1.0  T
   3    -32.0771109  0.234710E-07  0.233E-03    3.64       8.4  T
   4    -32.0771109 -0.191415E-07  0.130E-03    3.64      15.1  T
   5    -32.0771110 -0.341613E-07  0.398E-04    3.64      49.3  T
   6    -32.0771110 -0.883617E-09  0.177E-04    3.64     110.6  T
   7    -32.0771110 -0.515854E-10  0.468E-05    3.64     419.0  T
   8    -32.0771110 -0.286278E-10  0.132E-05    3.64    1488.7  T
   9    -32.0771110 -0.724754E-12  0.640E-06    3.64    3066.3  T
  10    -32.0771110 -0.298428E-12  0.189E-06    3.64   10367.2  T
     SCC iter.                  ...        0 min,  0.073 sec
     gradient                   ...        0 min,  0.002 sec
 * total energy  :   -31.5554987 Eh     change       -0.3384415E-04 Eh
   gradient norm :     0.0021168 Eh/α   predicted    -0.2494702E-04 ( -26.29%)
   displ. norm   :     0.0775823 α      lambda       -0.2864910E-04
   maximum displ.:     0.0470754 α      in ANC's #5, #4, #6, ...

........................................................................
.............................. CYCLE   10 ..............................
........................................................................

 iter      E             dE          RMSdq      gap      omega  full diag
   1    -32.0768723 -0.320769E+02  0.269E-02    3.65       0.0  T
   2    -32.0768724 -0.112952E-06  0.151E-02    3.65       1.3  T
   3    -32.0768724  0.291066E-08  0.193E-03    3.65      10.2  T
   4    -32.0768724 -0.492965E-08  0.878E-04    3.65      22.3  T
   5    -32.0768724 -0.133358E-07  0.248E-04    3.65      79.1  T
   6    -32.0768724 -0.210967E-09  0.124E-04    3.65     158.1  T
   7    -32.0768724 -0.122725E-09  0.345E-05    3.65     568.6  T
   8    -32.0768724 -0.149072E-10  0.115E-05    3.65    1702.5  T
   9    -32.0768724 -0.128608E-11  0.484E-06    3.65    4053.8  T
  10    -32.0768724 -0.923706E-13  0.185E-06    3.65   10605.9  T
     SCC iter.                  ...        0 min,  0.073 sec
     gradient                   ...        0 min,  0.002 sec
 * total energy  :   -31.5555194 Eh     change       -0.2078146E-04 Eh
   gradient norm :     0.0013854 Eh/α   predicted    -0.1441095E-04 ( -30.65%)
   displ. norm   :     0.1392545 α      lambda       -0.2817333E-04
   maximum displ.:     0.0731652 α      in ANC's #5, #4, #6, ...

........................................................................
.............................. CYCLE   11 ..............................
........................................................................

 iter      E             dE          RMSdq      gap      omega  full diag
   1    -32.0764814 -0.320765E+02  0.420E-02    3.65       0.0  T
   2    -32.0764816 -0.192983E-06  0.240E-02    3.65       1.0  T
   3    -32.0764816 -0.688426E-08  0.251E-03    3.65       7.8  T
   4    -32.0764816 -0.157039E-07  0.977E-04    3.65      20.1  T
   5    -32.0764816 -0.110592E-07  0.339E-04    3.65      57.8  T
   6    -32.0764816 -0.261473E-09  0.172E-04    3.65     114.3  T
   7    -32.0764816 -0.325791E-09  0.397E-05    3.65     494.3  T
   8    -32.0764816 -0.751754E-11  0.169E-05    3.65    1159.7  T
   9    -32.0764816 -0.297007E-11  0.585E-06    3.65    3352.7  T
  10    -32.0764816 -0.852651E-13  0.199E-06    3.65    9840.9  T
     SCC iter.                  ...        0 min,  0.073 sec
     gradient                   ...        0 min,  0.002 sec
 * total energy  :   -31.5555465 Eh     change       -0.2702558E-04 Eh
   gradient norm :     0.0025431 Eh/α   predicted    -0.1421064E-04 ( -47.42%)
   displ. norm   :     0.0958445 α      lambda       -0.2907579E-04
   maximum displ.:     0.0540590 α      in ANC's #4, #6, #3, ...

........................................................................
.............................. CYCLE   12 ..............................
........................................................................

 iter      E             dE          RMSdq      gap      omega  full diag
   1    -32.0761341 -0.320761E+02  0.244E-02    3.65       0.0  T
   2    -32.0761342 -0.494018E-07  0.144E-02    3.65       1.4  T
   3    -32.0761341  0.244525E-07  0.175E-03    3.65      11.2  T
   4    -32.0761342 -0.345946E-07  0.553E-04    3.65      35.5  T
   5    -32.0761342 -0.235592E-08  0.316E-04    3.65      62.0  T
   6    -32.0761342 -0.139605E-08  0.116E-04    3.65     169.3  T
   7    -32.0761342 -0.223963E-10  0.291E-05    3.65     675.1  T
   8    -32.0761342 -0.435563E-11  0.134E-05    3.65    1461.6  T
   9    -32.0761342 -0.149214E-11  0.501E-06    3.65    3910.9  T
  10    -32.0761342 -0.191847E-12  0.820E-07    3.65   23918.4  T
     SCC iter.                  ...        0 min,  0.073 sec
     gradient                   ...        0 min,  0.002 sec
 * total energy  :   -31.5555729 Eh     change       -0.2639675E-04 Eh
   gradient norm :     0.0028136 Eh/α   predicted    -0.1467205E-04 ( -44.42%)
   displ. norm   :     0.3492282 α      lambda       -0.1082476E-03
   maximum displ.:     0.1979347 α      in ANC's #4, #6, #3, ...

........................................................................
.............................. CYCLE   13 ..............................
........................................................................

 iter      E             dE          RMSdq      gap      omega  full diag
   1    -32.0746006 -0.320746E+02  0.838E-02    3.65       0.0  T
   2    -32.0746015 -0.860325E-06  0.494E-02    3.65       1.0  T
   3    -32.0746009  0.515960E-06  0.743E-03    3.65       2.6  T
   4    -32.0746016 -0.659904E-06  0.196E-03    3.65      10.0  T
   5    -32.0746016 -0.493760E-07  0.109E-03    3.65      18.1  T
   6    -32.0746017 -0.137910E-07  0.377E-04    3.65      52.1  T
   7    -32.0746017 -0.352266E-09  0.119E-04    3.65     164.7  T
   8    -32.0746017 -0.346105E-10  0.514E-05    3.65     381.5  T
   9    -32.0746017 -0.167120E-10  0.231E-05    3.65     847.5  T
  10    -32.0746017 -0.311218E-11  0.326E-06    3.65    6017.5  T
  11    -32.0746017 -0.142109E-13  0.171E-06    3.65   11478.1  T
     SCC iter.                  ...        0 min,  0.074 sec
     gradient                   ...        0 min,  0.002 sec
 * total energy  :   -31.5556443 Eh     change       -0.7147225E-04 Eh
   gradient norm :     0.0046766 Eh/α   predicted    -0.6072565E-04 ( -15.04%)
   displ. norm   :     0.1570950 α      lambda       -0.6465493E-04
   maximum displ.:     0.0970671 α      in ANC's #4, #3, #6, ...

........................................................................
.............................. CYCLE   14 ..............................
........................................................................

 iter      E             dE          RMSdq      gap      omega  full diag
   1    -32.0753475 -0.320753E+02  0.367E-02    3.65       0.0  T
   2    -32.0753478 -0.214493E-06  0.213E-02    3.65       1.0  T
   3    -32.0753475  0.268897E-06  0.568E-03    3.65       3.5  T
   4    -32.0753478 -0.332684E-06  0.126E-03    3.65      15.6  T
   5    -32.0753478 -0.591599E-08  0.742E-04    3.65      26.4  T
   6    -32.0753478 -0.186386E-08  0.249E-04    3.65      78.7  T
   7    -32.0753478 -0.150024E-09  0.443E-05    3.65     442.9  T
   8    -32.0753478 -0.107079E-10  0.202E-05    3.65     973.0  T
   9    -32.0753478 -0.243716E-11  0.921E-06    3.65    2128.8  T
  10    -32.0753478 -0.213163E-12  0.229E-06    3.65    8549.7  T
     SCC iter.                  ...        0 min,  0.074 sec
     gradient                   ...        0 min,  0.002 sec
 * total energy  :   -31.5556925 Eh     change       -0.4815718E-04 Eh
   gradient norm :     0.0034724 Eh/α   predicted    -0.3312545E-04 ( -31.21%)
   displ. norm   :     0.2535038 α      lambda       -0.8283687E-04
   maximum displ.:     0.1641746 α      in ANC's #4, #3, #6, ...

........................................................................
.............................. CYCLE   15 ..............................
........................................................................

 iter      E             dE          RMSdq      gap      omega  full diag
   1    -32.0755932 -0.320756E+02  0.608E-02    3.65       0.0  T
   2    -32.0755936 -0.371661E-06  0.361E-02    3.65       1.0  T
   3    -32.0755932  0.401280E-06  0.689E-03    3.65       2.8  T
   4    -32.0755937 -0.506690E-06  0.137E-03    3.65      14.3  T
   5    -32.0755937 -0.737671E-08  0.864E-04    3.65      22.7  T
   6    -32.0755937 -0.912901E-08  0.259E-04    3.65      75.7  T
   7    -32.0755937 -0.162252E-09  0.781E-05    3.65     251.1  T
   8    -32.0755937 -0.529070E-10  0.317E-05    3.65     617.8  T
   9    -32.0755937 -0.521538E-11  0.137E-05    3.65    1434.6  T
  10    -32.0755937 -0.483169E-12  0.327E-06    3.65    5995.3  T
  11    -32.0755937 -0.127898E-12  0.107E-06    3.65   18244.2  T
     SCC iter.                  ...        0 min,  0.074 sec
     gradient                   ...        0 min,  0.002 sec
 * total energy  :   -31.5557564 Eh     change       -0.6393640E-04 Eh
   gradient norm :     0.0029969 Eh/α   predicted    -0.4408088E-04 ( -31.06%)
   displ. norm   :     0.2348581 α      lambda       -0.1120351E-03
   maximum displ.:     0.1622297 α      in ANC's #4, #3, #8, ...

........................................................................
.............................. CYCLE   16 ..............................
........................................................................

 iter      E             dE          RMSdq      gap      omega  full diag
   1    -32.0788858 -0.320789E+02  0.602E-02    3.64       0.0  T
   2    -32.0788871 -0.130332E-05  0.356E-02    3.64       1.0  T
   3    -32.0788869  0.175837E-06  0.742E-03    3.64       2.6  T
   4    -32.0788872 -0.301907E-06  0.217E-03    3.64       9.0  T
   5    -32.0788872 -0.233233E-07  0.120E-03    3.64      16.3  T
   6    -32.0788872 -0.134349E-07  0.553E-04    3.64      35.5  T
   7    -32.0788872 -0.203518E-08  0.141E-04    3.64     139.2  T
   8    -32.0788872 -0.279954E-10  0.352E-05    3.64     557.5  T
   9    -32.0788872 -0.113332E-10  0.176E-05    3.64    1114.3  T
  10    -32.0788872 -0.123634E-11  0.623E-06    3.64    3150.0  T
  11    -32.0788872 -0.277112E-12  0.181E-06    3.64   10818.5  T
     SCC iter.                  ...        0 min,  0.074 sec
     gradient                   ...        0 min,  0.002 sec
 * total energy  :   -31.5558052 Eh     change       -0.4878082E-04 Eh
   gradient norm :     0.0041832 Eh/α   predicted    -0.5910914E-04 (  21.17%)
   displ. norm   :     0.4661642 α      lambda       -0.1157695E-03
   maximum displ.:     0.3012742 α      in ANC's #4, #3, #6, ...

........................................................................
.............................. CYCLE   17 ..............................
........................................................................

 iter      E             dE          RMSdq      gap      omega  full diag
   1    -32.0744624 -0.320745E+02  0.115E-01    3.63       0.0  T
   2    -32.0744664 -0.402668E-05  0.672E-02    3.64       1.0  T
   3    -32.0744661  0.329502E-06  0.110E-02    3.64       1.8  T
   4    -32.0744668 -0.680157E-06  0.314E-03    3.64       6.3  T
   5    -32.0744668 -0.750728E-07  0.205E-03    3.64       9.6  T
   6    -32.0744669 -0.435281E-07  0.566E-04    3.64      34.6  T
   7    -32.0744669 -0.200582E-08  0.234E-04    3.64      83.7  T
   8    -32.0744669 -0.267157E-09  0.785E-05    3.64     250.0  T
   9    -32.0744669 -0.138840E-10  0.413E-05    3.64     474.9  T
  10    -32.0744669 -0.910205E-11  0.641E-06    3.64    3059.4  T
  11    -32.0744669 -0.497380E-12  0.295E-06    3.64    6641.5  T
     SCC iter.                  ...        0 min,  0.074 sec
     gradient                   ...        0 min,  0.002 sec
 * total energy  :   -31.5557791 Eh     change        0.2611955E-04 Eh
   gradient norm :     0.0078409 Eh/α   predicted    -0.7046866E-04 (-369.79%)
   displ. norm   :     0.2534463 α      lambda       -0.1925968E-03
   maximum displ.:     0.1575802 α      in ANC's #4, #3, #6, ...

........................................................................
.............................. CYCLE   18 ..............................
........................................................................

 iter      E             dE          RMSdq      gap      omega  full diag
   1    -32.0776185 -0.320776E+02  0.655E-02    3.64       0.0  T
   2    -32.0776205 -0.197971E-05  0.378E-02    3.64       1.0  T
   3    -32.0776203  0.192432E-06  0.857E-03    3.64       2.3  T
   4    -32.0776206 -0.347622E-06  0.201E-03    3.64       9.8  T
   5    -32.0776207 -0.371114E-07  0.135E-03    3.64      14.5  T
   6    -32.0776207 -0.140635E-07  0.387E-04    3.64      50.7  T
   7    -32.0776207 -0.133654E-08  0.136E-04    3.64     144.4  T
   8    -32.0776207 -0.555573E-10  0.528E-05    3.64     371.7  T
   9    -32.0776207 -0.136211E-10  0.246E-05    3.64     798.8  T
  10    -32.0776207 -0.137135E-11  0.546E-06    3.64    3588.7  T
  11    -32.0776207 -0.376588E-12  0.226E-06    3.64    8685.0  T
     SCC iter.                  ...        0 min,  0.074 sec
     gradient                   ...        0 min,  0.002 sec
 * total energy  :   -31.5558582 Eh     change       -0.7907476E-04 Eh
   gradient norm :     0.0021518 Eh/α   predicted    -0.1024895E-03 (  29.61%)
   displ. norm   :     0.0770903 α      lambda       -0.1751852E-04
   maximum displ.:     0.0512165 α      in ANC's #4, #3, #5, ...

........................................................................
.............................. CYCLE   19 ..............................
........................................................................

 iter      E             dE          RMSdq      gap      omega  full diag
   1    -32.0774861 -0.320775E+02  0.187E-02    3.64       0.0  T
   2    -32.0774861 -0.358661E-07  0.108E-02    3.64       1.8  T
   3    -32.0774861  0.187556E-08  0.969E-04    3.64      20.2  T
   4    -32.0774861 -0.506510E-08  0.443E-04    3.64      44.2  T
   5    -32.0774861 -0.384937E-08  0.159E-04    3.64     123.4  T
   6    -32.0774861 -0.217597E-09  0.747E-05    3.64     262.6  T
   7    -32.0774861 -0.138627E-10  0.176E-05    3.64    1114.8  T
   8    -32.0774861 -0.504485E-11  0.734E-06    3.64    2673.3  T
   9    -32.0774861 -0.163425E-12  0.279E-06    3.64    7026.6  T
     SCC iter.                  ...        0 min,  0.073 sec
     gradient                   ...        0 min,  0.002 sec
 * total energy  :   -31.5558737 Eh     change       -0.1550359E-04 Eh
   gradient norm :     0.0015250 Eh/α   predicted    -0.8813574E-05 ( -43.15%)
   displ. norm   :     0.4228447 α      lambda       -0.4770979E-04
   maximum displ.:     0.2818638 α      in ANC's #4, #3, #5, ...

........................................................................
.............................. CYCLE   20 ..............................
........................................................................

 iter      E             dE          RMSdq      gap      omega  full diag
   1    -32.0757189 -0.320757E+02  0.101E-01    3.64       0.0  T
   2    -32.0757198 -0.959861E-06  0.589E-02    3.64       1.0  T
   3    -32.0757196  0.213213E-06  0.559E-03    3.64       3.5  T
   4    -32.0757199 -0.335028E-06  0.241E-03    3.64       8.1  T
   5    -32.0757200 -0.924469E-07  0.100E-03    3.64      19.5  T
   6    -32.0757200 -0.104296E-07  0.405E-04    3.64      48.4  T
   7    -32.0757200 -0.298236E-09  0.109E-04    3.64     180.3  T
   8    -32.0757200 -0.349516E-10  0.447E-05    3.64     438.4  T
   9    -32.0757200 -0.151701E-10  0.210E-05    3.64     935.8  T
  10    -32.0757200 -0.498090E-11  0.502E-06    3.64    3908.2  T
  11    -32.0757200 -0.156319E-12  0.155E-06    3.64   12671.5  T
     SCC iter.                  ...        0 min,  0.074 sec
     gradient                   ...        0 min,  0.002 sec
 * total energy  :   -31.5558872 Eh     change       -0.1352758E-04 Eh
   gradient norm :     0.0024043 Eh/α   predicted    -0.2575386E-04 (  90.38%)
   displ. norm   :     0.1130285 α      lambda       -0.2483586E-04
   maximum displ.:     0.0754795 α      in ANC's #4, #3, #5, ...
 * RMSD in coord.:     0.6084980 α      energy gain  -0.1382219E-01 Eh

generating ANC from model Hessian ...
Using Lindh-Hessian (1995)
 Shifting diagonal of input Hessian by   9.241976379725327E-003
 Lowest  eigenvalues of input Hessian
    0.000000    0.000000    0.000000    0.000000    0.000000    0.000000
    0.010000    0.010266    0.010756    0.011284    0.012158    0.013018
    0.015048    0.017699    0.018219    0.019572    0.024109    0.024345
 Highest eigenvalues
    1.363946    1.552129    1.576082    1.880751    1.986969    2.004834
 

........................................................................
.............................. CYCLE   21 ..............................
........................................................................

 iter      E             dE          RMSdq      gap      omega  full diag
   1    -32.0770862 -0.320771E+02  0.268E-02    3.64       0.0  T
   2    -32.0770863 -0.170413E-06  0.155E-02    3.64       1.3  T
   3    -32.0770863  0.844762E-08  0.210E-03    3.64       9.3  T
   4    -32.0770864 -0.220431E-07  0.727E-04    3.64      27.0  T
   5    -32.0770864 -0.525871E-08  0.446E-04    3.64      44.0  T
   6    -32.0770864 -0.260525E-08  0.118E-04    3.64     166.4  T
   7    -32.0770864 -0.303118E-10  0.516E-05    3.64     380.3  T
   8    -32.0770864 -0.236540E-10  0.155E-05    3.64    1268.0  T
   9    -32.0770864 -0.100897E-11  0.808E-06    3.64    2425.7  T
  10    -32.0770864 -0.639488E-12  0.132E-06    3.64   14896.4  T
     SCC iter.                  ...        0 min,  0.074 sec
     gradient                   ...        0 min,  0.002 sec
 * total energy  :   -31.5559010 Eh     change       -0.1378412E-04 Eh
   gradient norm :     0.0011245 Eh/α   predicted     0.0000000E+00 (-100.00%)
   displ. norm   :     0.0215139 α      lambda       -0.4450294E-05
   maximum displ.:     0.0116336 α      in ANC's #1, #10, #3, ...

........................................................................
.............................. CYCLE   22 ..............................
........................................................................

 iter      E             dE          RMSdq      gap      omega  full diag
   1    -32.0772341 -0.320772E+02  0.867E-03    3.64       0.0  T
   2    -32.0772341 -0.305643E-07  0.493E-03    3.64       4.0  T
   3    -32.0772341  0.145488E-07  0.190E-03    3.64      10.3  T
   4    -32.0772341 -0.206248E-07  0.344E-04    3.64      57.0  T
   5    -32.0772341 -0.577124E-09  0.205E-04    3.64      95.8  T
   6    -32.0772341 -0.565954E-09  0.853E-05    3.64     229.8  T
   7    -32.0772341 -0.181899E-10  0.235E-05    3.64     835.1  T
   8    -32.0772341 -0.249401E-11  0.102E-05    3.64    1927.3  T
   9    -32.0772341 -0.122924E-11  0.431E-06    3.64    4555.3  T
  10    -32.0772341  0.710543E-14  0.118E-06    3.64   16604.1  T
     SCC iter.                  ...        0 min,  0.074 sec
     gradient                   ...        0 min,  0.002 sec
 * total energy  :   -31.5559059 Eh     change       -0.4882925E-05 Eh
   gradient norm :     0.0003394 Eh/α   predicted    -0.2246159E-05 ( -54.00%)
   displ. norm   :     0.0433011 α      lambda       -0.4657959E-05
   maximum displ.:     0.0245640 α      in ANC's #1, #3, #10, ...

........................................................................
.............................. CYCLE   23 ..............................
........................................................................

 iter      E             dE          RMSdq      gap      omega  full diag
   1    -32.0772636 -0.320773E+02  0.145E-02    3.64       0.0  T
   2    -32.0772637 -0.391230E-07  0.844E-03    3.64       2.3  T
   3    -32.0772636  0.174582E-07  0.183E-03    3.64      10.7  T
   4    -32.0772637 -0.244805E-07  0.401E-04    3.64      49.0  T
   5    -32.0772637 -0.114206E-08  0.187E-04    3.64     105.0  T
   6    -32.0772637 -0.803887E-09  0.613E-05    3.64     320.1  T
   7    -32.0772637 -0.883205E-11  0.317E-05    3.64     618.9  T
   8    -32.0772637 -0.596856E-11  0.839E-06    3.64    2336.5  T
   9    -32.0772637 -0.660805E-12  0.262E-06    3.64    7483.4  T
     SCC iter.                  ...        0 min,  0.074 sec
     gradient                   ...        0 min,  0.002 sec
 * total energy  :   -31.5559105 Eh     change       -0.4626046E-05 Eh
   gradient norm :     0.0006920 Eh/α   predicted    -0.2331554E-05 ( -49.60%)
   displ. norm   :     0.0441761 α      lambda       -0.3098764E-05
   maximum displ.:     0.0259556 α      in ANC's #1, #3, #2, ...

........................................................................
.............................. CYCLE   24 ..............................
........................................................................

 iter      E             dE          RMSdq      gap      omega  full diag
   1    -32.0771895 -0.320772E+02  0.150E-02    3.64       0.0  T
   2    -32.0771895 -0.393000E-07  0.865E-03    3.64       2.3  T
   3    -32.0771895  0.276677E-08  0.133E-03    3.64      14.7  T
   4    -32.0771896 -0.884373E-08  0.494E-04    3.64      39.7  T
   5    -32.0771896 -0.104318E-08  0.131E-04    3.64     150.2  T
   6    -32.0771896 -0.375735E-09  0.551E-05    3.64     356.1  T
   7    -32.0771896 -0.900258E-11  0.184E-05    3.64    1067.6  T
   8    -32.0771896 -0.994760E-13  0.798E-06    3.64    2458.6  T
   9    -32.0771896 -0.122213E-11  0.167E-06    3.64   11741.9  T
     SCC iter.                  ...        0 min,  0.073 sec
     gradient                   ...        0 min,  0.002 sec
 * total energy  :   -31.5559136 Eh     change       -0.3081848E-05 Eh
   gradient norm :     0.0007924 Eh/α   predicted    -0.1556027E-05 ( -49.51%)
   displ. norm   :     0.0460899 α      lambda       -0.2889298E-05
   maximum displ.:     0.0284718 α      in ANC's #1, #3, #2, ...

........................................................................
.............................. CYCLE   25 ..............................
........................................................................

 iter      E             dE          RMSdq      gap      omega  full diag
   1    -32.0772156 -0.320772E+02  0.154E-02    3.64       0.0  T
   2    -32.0772156 -0.213486E-07  0.899E-03    3.64       2.2  T
   3    -32.0772156 -0.177597E-08  0.757E-04    3.64      25.9  T
   4    -32.0772156 -0.175761E-08  0.359E-04    3.64      54.6  T
   5    -32.0772156 -0.131072E-08  0.936E-05    3.64     209.6  T
   6    -32.0772156 -0.811156E-10  0.478E-05    3.64     410.1  T
   7    -32.0772156 -0.986233E-11  0.107E-05    3.64    1840.6  T
   8    -32.0772156 -0.426326E-12  0.338E-06    3.64    5798.8  T
   9    -32.0772156 -0.852651E-13  0.995E-07    3.64   19701.2  T
     SCC iter.                  ...        0 min,  0.073 sec
     gradient                   ...        0 min,  0.002 sec
 * total energy  :   -31.5559165 Eh     change       -0.2933733E-05 Eh
   gradient norm :     0.0004698 Eh/α   predicted    -0.1446336E-05 ( -50.70%)
   displ. norm   :     0.0337248 α      lambda       -0.1765830E-05
   maximum displ.:     0.0228210 α      in ANC's #1, #3, #6, ...

........................................................................
.............................. CYCLE   26 ..............................
........................................................................

 iter      E             dE          RMSdq      gap      omega  full diag
   1    -32.0772448 -0.320772E+02  0.125E-02    3.64       0.0  T
   2    -32.0772448 -0.206197E-07  0.720E-03    3.64       2.7  T
   3    -32.0772448 -0.856993E-09  0.792E-04    3.64      24.8  T
   4    -32.0772448 -0.182818E-08  0.268E-04    3.64      73.3  T
   5    -32.0772448 -0.503036E-09  0.982E-05    3.64     199.8  T
   6    -32.0772448 -0.103881E-09  0.481E-05    3.64     407.8  T
   7    -32.0772448 -0.950706E-11  0.144E-05    3.64    1365.1  T
   8    -32.0772448 -0.193978E-11  0.542E-06    3.64    3620.6  T
   9    -32.0772448 -0.298428E-12  0.146E-06    3.64   13451.3  T
     SCC iter.                  ...        0 min,  0.073 sec
     gradient                   ...        0 min,  0.002 sec
 * total energy  :   -31.5559183 Eh     change       -0.1756091E-05 Eh
   gradient norm :     0.0001827 Eh/α   predicted    -0.8834493E-06 ( -49.69%)
   displ. norm   :     0.0206193 α      lambda       -0.8134846E-06
   maximum displ.:     0.0156220 α      in ANC's #1, #3, #6, ...

........................................................................
.............................. CYCLE   27 ..............................
........................................................................

 iter      E             dE          RMSdq      gap      omega  full diag
   1    -32.0772311 -0.320772E+02  0.772E-03    3.64       0.0  T
   2    -32.0772312 -0.489376E-08  0.454E-03    3.64       4.3  T
   3    -32.0772312 -0.377810E-09  0.275E-04    3.64      71.3  T
   4    -32.0772312 -0.435229E-09  0.139E-04    3.64     141.3  T
   5    -32.0772312 -0.263036E-09  0.531E-05    3.64     369.5  T
   6    -32.0772312 -0.101110E-10  0.255E-05    3.64     769.0  T
   7    -32.0772312 -0.195399E-11  0.685E-06    3.64    2862.6  T
   8    -32.0772312 -0.561329E-12  0.233E-06    3.64    8409.0  T
     SCC iter.                  ...        0 min,  0.073 sec
     gradient                   ...        0 min,  0.002 sec
 * total energy  :   -31.5559192 Eh     change       -0.8928530E-06 Eh
   gradient norm :     0.0002380 Eh/α   predicted    -0.4086261E-06 ( -54.23%)
   displ. norm   :     0.0206193 α      lambda        0.0000000E+00
   maximum displ.:     0.0156220 α      in ANC's #1, #3, #6, ...

........................................................................
.............................. CYCLE   28 ..............................
........................................................................

 iter      E             dE          RMSdq      gap      omega  full diag
   1    -32.0772095 -0.320772E+02  0.772E-03    3.64       0.0  T
   2    -32.0772096 -0.485088E-08  0.454E-03    3.64       4.3  T
   3    -32.0772096 -0.402608E-09  0.273E-04    3.64      71.9  T
   4    -32.0772096 -0.411106E-09  0.137E-04    3.64     142.9  T
   5    -32.0772096 -0.257174E-09  0.528E-05    3.64     371.5  T
   6    -32.0772096 -0.101608E-10  0.253E-05    3.64     775.7  T
   7    -32.0772096 -0.203215E-11  0.663E-06    3.64    2957.3  T
   8    -32.0772096 -0.468958E-12  0.231E-06    3.64    8498.5  T
     SCC iter.                  ...        0 min,  0.073 sec
     gradient                   ...        0 min,  0.002 sec
 * total energy  :   -31.5559194 Eh     change       -0.2294651E-06 Eh
   gradient norm :     0.0004609 Eh/α   predicted    -0.2057603E-08 ( -99.10%)
   displ. norm   :     0.0079141 α      lambda       -0.5436896E-06
   maximum displ.:     0.0055561 α      in ANC's #1, #10, #2, ...

........................................................................
.............................. CYCLE   29 ..............................
........................................................................

 iter      E             dE          RMSdq      gap      omega  full diag
   1    -32.0772280 -0.320772E+02  0.346E-03    3.64       0.0  T
   2    -32.0772280 -0.799389E-09  0.201E-03    3.64       9.8  T
   3    -32.0772280  0.178893E-09  0.160E-04    3.64     122.6  T
   4    -32.0772280 -0.275044E-09  0.746E-05    3.64     263.1  T
   5    -32.0772280 -0.851514E-10  0.242E-05    3.64     811.8  T
   6    -32.0772280 -0.242295E-11  0.127E-05    3.64    1544.6  T
   7    -32.0772280 -0.994760E-12  0.312E-06    3.64    6286.2  T
   8    -32.0772280 -0.113687E-12  0.104E-06    3.64   18875.7  T
     SCC iter.                  ...        0 min,  0.073 sec
     gradient                   ...        0 min,  0.002 sec
 * total energy  :   -31.5559200 Eh     change       -0.6496183E-06 Eh
   gradient norm :     0.0002953 Eh/α   predicted    -0.2742499E-06 ( -57.78%)
   displ. norm   :     0.0159569 α      lambda       -0.8001857E-06
   maximum displ.:     0.0086158 α      in ANC's #1, #2, #10, ...

........................................................................
.............................. CYCLE   30 ..............................
........................................................................

 iter      E             dE          RMSdq      gap      omega  full diag
   1    -32.0772578 -0.320773E+02  0.530E-03    3.64       0.0  T
   2    -32.0772578 -0.245982E-08  0.308E-03    3.64       6.4  T
   3    -32.0772578  0.330985E-09  0.354E-04    3.64      55.5  T
   4    -32.0772578 -0.871694E-09  0.922E-05    3.64     212.7  T
   5    -32.0772578 -0.327276E-10  0.474E-05    3.64     413.4  T
   6    -32.0772578 -0.258282E-10  0.202E-05    3.64     972.8  T
   7    -32.0772578 -0.132161E-11  0.574E-06    3.64    3417.2  T
   8    -32.0772578 -0.284217E-12  0.160E-06    3.64   12282.5  T
     SCC iter.                  ...        0 min,  0.073 sec
     gradient                   ...        0 min,  0.002 sec
 * total energy  :   -31.5559208 Eh     change       -0.7985722E-06 Eh
   gradient norm :     0.0001415 Eh/α   predicted    -0.4009800E-06 ( -49.79%)
   displ. norm   :     0.0129715 α      lambda       -0.3912379E-06
   maximum displ.:     0.0088268 α      in ANC's #1, #2, #6, ...

........................................................................
.............................. CYCLE   31 ..............................
........................................................................

 iter      E             dE          RMSdq      gap      omega  full diag
   1    -32.0772505 -0.320773E+02  0.496E-03    3.64       0.0  T
   2    -32.0772505 -0.181929E-08  0.293E-03    3.64       6.7  T
   3    -32.0772505  0.774889E-09  0.398E-04    3.64      49.3  T
   4    -32.0772505 -0.118526E-08  0.840E-05    3.64     233.5  T
   5    -32.0772505 -0.332534E-11  0.536E-05    3.64     366.0  T
   6    -32.0772505 -0.396554E-10  0.253E-05    3.64     773.8  T
   7    -32.0772505 -0.167688E-11  0.387E-06    3.64    5065.9  T
   8    -32.0772505 -0.781597E-13  0.125E-06    3.64   15644.3  T
     SCC iter.                  ...        0 min,  0.073 sec
     gradient                   ...        0 min,  0.002 sec
 * total energy  :   -31.5559213 Eh     change       -0.4687648E-06 Eh
   gradient norm :     0.0002068 Eh/α   predicted    -0.1975548E-06 ( -57.86%)
   displ. norm   :     0.0122536 α      lambda       -0.3669801E-06
   maximum displ.:     0.0088423 α      in ANC's #1, #2, #6, ...

........................................................................
.............................. CYCLE   32 ..............................
........................................................................

 iter      E             dE          RMSdq      gap      omega  full diag
   1    -32.0772355 -0.320772E+02  0.495E-03    3.64       0.0  T
   2    -32.0772355 -0.133993E-08  0.293E-03    3.64       6.7  T
   3    -32.0772355  0.513161E-09  0.316E-04    3.64      62.1  T
   4    -32.0772355 -0.871545E-09  0.755E-05    3.64     259.9  T
   5    -32.0772355 -0.150493E-10  0.455E-05    3.64     430.6  T
   6    -32.0772355 -0.256364E-10  0.192E-05    3.64    1018.9  T
   7    -32.0772355 -0.817124E-12  0.396E-06    3.64    4956.7  T
   8    -32.0772355 -0.170530E-12  0.937E-07    3.64   20927.7  T
     SCC iter.                  ...        0 min,  0.073 sec
     gradient                   ...        0 min,  0.002 sec
 * total energy  :   -31.5559218 Eh     change       -0.4954414E-06 Eh
   gradient norm :     0.0001729 Eh/α   predicted    -0.1852190E-06 ( -62.62%)
   displ. norm   :     0.0148304 α      lambda       -0.4467763E-06
   maximum displ.:     0.0110771 α      in ANC's #1, #2, #9, ...

........................................................................
.............................. CYCLE   33 ..............................
........................................................................

 iter      E             dE          RMSdq      gap      omega  full diag
   1    -32.0772332 -0.320772E+02  0.640E-03    3.64       0.0  T
   2    -32.0772332 -0.309670E-08  0.375E-03    3.64       5.2  T
   3    -32.0772332  0.155261E-08  0.400E-04    3.64      49.0  T
   4    -32.0772332 -0.191226E-08  0.155E-04    3.64     126.3  T
   5    -32.0772332 -0.378130E-09  0.547E-05    3.64     358.6  T
   6    -32.0772332 -0.420641E-10  0.252E-05    3.64     777.9  T
   7    -32.0772332 -0.130740E-11  0.442E-06    3.64    4434.4  T
   8    -32.0772332 -0.142109E-12  0.137E-06    3.64   14345.6  T
     SCC iter.                  ...        0 min,  0.073 sec
     gradient                   ...        0 min,  0.002 sec
 * total energy  :   -31.5559224 Eh     change       -0.5794433E-06 Eh
   gradient norm :     0.0000886 Eh/α   predicted    -0.2242100E-06 ( -61.31%)
   displ. norm   :     0.0158852 α      lambda       -0.4030858E-06
   maximum displ.:     0.0125813 α      in ANC's #1, #2, #9, ...

........................................................................
.............................. CYCLE   34 ..............................
........................................................................

 iter      E             dE          RMSdq      gap      omega  full diag
   1    -32.0772203 -0.320772E+02  0.698E-03    3.64       0.0  T
   2    -32.0772203 -0.298040E-08  0.412E-03    3.64       4.8  T
   3    -32.0772203  0.166181E-08  0.406E-04    3.64      48.3  T
   4    -32.0772203 -0.220663E-08  0.135E-04    3.64     144.8  T
   5    -32.0772203 -0.249152E-09  0.565E-05    3.64     347.0  T
   6    -32.0772203 -0.418154E-10  0.234E-05    3.64     838.3  T
   7    -32.0772203 -0.611067E-12  0.539E-06    3.64    3636.2  T
   8    -32.0772203 -0.312639E-12  0.158E-06    3.64   12420.7  T
     SCC iter.                  ...        0 min,  0.073 sec
     gradient                   ...        0 min,  0.002 sec
 * total energy  :   -31.5559229 Eh     change       -0.5244433E-06 Eh
   gradient norm :     0.0001008 Eh/α   predicted    -0.2028789E-06 ( -61.32%)
   displ. norm   :     0.0131005 α      lambda       -0.3073567E-06
   maximum displ.:     0.0109144 α      in ANC's #1, #2, #5, ...

........................................................................
.............................. CYCLE   35 ..............................
........................................................................

 iter      E             dE          RMSdq      gap      omega  full diag
   1    -32.0772276 -0.320772E+02  0.557E-03    3.64       0.0  T
   2    -32.0772276 -0.219353E-08  0.326E-03    3.64       6.0  T
   3    -32.0772276  0.122667E-08  0.330E-04    3.64      59.5  T
   4    -32.0772276 -0.144988E-08  0.137E-04    3.64     143.3  T
   5    -32.0772276 -0.355506E-09  0.406E-05    3.64     482.7  T
   6    -32.0772276 -0.161222E-10  0.172E-05    3.64    1137.8  T
   7    -32.0772276 -0.106581E-12  0.424E-06    3.64    4627.2  T
   8    -32.0772276 -0.213163E-12  0.131E-06    3.64   14993.0  T
     SCC iter.                  ...        0 min,  0.073 sec
     gradient                   ...        0 min,  0.002 sec
 * total energy  :   -31.5559233 Eh     change       -0.4230960E-06 Eh
   gradient norm :     0.0001168 Eh/α   predicted    -0.1546891E-06 ( -63.44%)
   displ. norm   :     0.0115724 α      lambda       -0.2745281E-06
   maximum displ.:     0.0099204 α      in ANC's #1, #2, #5, ...

........................................................................
.............................. CYCLE   36 ..............................
........................................................................

 iter      E             dE          RMSdq      gap      omega  full diag
   1    -32.0772364 -0.320772E+02  0.455E-03    3.64       0.0  T
   2    -32.0772364 -0.115215E-08  0.268E-03    3.64       7.3  T
   3    -32.0772364  0.646708E-09  0.238E-04    3.64      82.4  T
   4    -32.0772364 -0.875396E-09  0.860E-05    3.64     227.9  T
   5    -32.0772364 -0.118241E-09  0.312E-05    3.64     627.8  T
   6    -32.0772364 -0.101679E-10  0.124E-05    3.64    1578.6  T
   7    -32.0772364  0.781597E-13  0.368E-06    3.64    5331.3  T
   8    -32.0772364 -0.277112E-12  0.111E-06    3.64   17706.7  T
     SCC iter.                  ...        0 min,  0.073 sec
     gradient                   ...        0 min,  0.002 sec
 * total energy  :   -31.5559237 Eh     change       -0.4182272E-06 Eh
   gradient norm :     0.0001035 Eh/α   predicted    -0.1415294E-06 ( -66.16%)
   displ. norm   :     0.0118609 α      lambda       -0.3114299E-06
   maximum displ.:     0.0099729 α      in ANC's #1, #5, #2, ...

........................................................................
.............................. CYCLE   37 ..............................
........................................................................

 iter      E             dE          RMSdq      gap      omega  full diag
   1    -32.0772398 -0.320772E+02  0.423E-03    3.64       0.0  T
   2    -32.0772398 -0.756074E-09  0.250E-03    3.64       7.9  T
   3    -32.0772398  0.562764E-09  0.211E-04    3.64      93.1  T
   4    -32.0772398 -0.814616E-09  0.649E-05    3.64     302.0  T
   5    -32.0772398 -0.556497E-10  0.290E-05    3.64     677.0  T
   6    -32.0772398 -0.530065E-11  0.116E-05    3.64    1692.1  T
   7    -32.0772398  0.355271E-13  0.343E-06    3.64    5710.8  T
   8    -32.0772398 -0.255795E-12  0.106E-06    3.64   18491.6  T
     SCC iter.                  ...        0 min,  0.073 sec
     gradient                   ...        0 min,  0.002 sec
 * total energy  :   -31.5559242 Eh     change       -0.4537903E-06 Eh
   gradient norm :     0.0000734 Eh/α   predicted    -0.1594390E-06 ( -64.87%)
   displ. norm   :     0.0143948 α      lambda       -0.3613412E-06
   maximum displ.:     0.0120072 α      in ANC's #1, #5, #6, ...

........................................................................
.............................. CYCLE   38 ..............................
........................................................................

 iter      E             dE          RMSdq      gap      omega  full diag
   1    -32.0772431 -0.320772E+02  0.487E-03    3.64       0.0  T
   2    -32.0772431 -0.112625E-08  0.286E-03    3.64       6.8  T
   3    -32.0772431  0.351200E-09  0.201E-04    3.64      97.5  T
   4    -32.0772431 -0.627594E-09  0.853E-05    3.64     229.8  T
   5    -32.0772431 -0.103626E-09  0.307E-05    3.64     639.5  T
   6    -32.0772431 -0.498090E-11  0.143E-05    3.64    1374.0  T
   7    -32.0772431 -0.191847E-12  0.306E-06    3.64    6413.4  T
   8    -32.0772431 -0.170530E-12  0.137E-06    3.64   14346.6  T
     SCC iter.                  ...        0 min,  0.073 sec
     gradient                   ...        0 min,  0.002 sec
 * total energy  :   -31.5559247 Eh     change       -0.5066528E-06 Eh
   gradient norm :     0.0000457 Eh/α   predicted    -0.1826907E-06 ( -63.94%)
   displ. norm   :     0.0142239 α      lambda       -0.3196997E-06
   maximum displ.:     0.0121529 α      in ANC's #1, #5, #6, ...

........................................................................
.............................. CYCLE   39 ..............................
........................................................................

 iter      E             dE          RMSdq      gap      omega  full diag
   1    -32.0772448 -0.320772E+02  0.490E-03    3.64       0.0  T
   2    -32.0772448 -0.946720E-09  0.288E-03    3.64       6.8  T
   3    -32.0772448  0.361126E-09  0.198E-04    3.64      99.2  T
   4    -32.0772448 -0.672628E-09  0.749E-05    3.64     261.8  T
   5    -32.0772448 -0.677502E-10  0.306E-05    3.64     639.9  T
   6    -32.0772448 -0.454037E-11  0.133E-05    3.64    1479.6  T
   7    -32.0772448 -0.156319E-12  0.315E-06    3.64    6230.1  T
   8    -32.0772448 -0.234479E-12  0.127E-06    3.64   15464.8  T
     SCC iter.                  ...        0 min,  0.073 sec
     gradient                   ...        0 min,  0.002 sec
 * total energy  :   -31.5559251 Eh     change       -0.4394485E-06 Eh
   gradient norm :     0.0000458 Eh/α   predicted    -0.1607849E-06 ( -63.41%)
   displ. norm   :     0.0110701 α      lambda       -0.2236950E-06
   maximum displ.:     0.0098864 α      in ANC's #1, #5, #6, ...

........................................................................
.............................. CYCLE   40 ..............................
........................................................................

 iter      E             dE          RMSdq      gap      omega  full diag
   1    -32.0772442 -0.320772E+02  0.393E-03    3.64       0.0  T
   2    -32.0772442 -0.740876E-09  0.231E-03    3.64       8.5  T
   3    -32.0772442  0.156398E-09  0.157E-04    3.64     124.8  T
   4    -32.0772442 -0.337835E-09  0.666E-05    3.64     294.4  T
   5    -32.0772442 -0.577103E-10  0.242E-05    3.64     811.4  T
   6    -32.0772442 -0.412115E-11  0.112E-05    3.64    1758.5  T
   7    -32.0772442 -0.497380E-13  0.232E-06    3.64    8440.1  T
   8    -32.0772442 -0.852651E-13  0.993E-07    3.64   19739.9  T
     SCC iter.                  ...        0 min,  0.074 sec
     gradient                   ...        0 min,  0.002 sec
 * total energy  :   -31.5559255 Eh     change       -0.3214972E-06 Eh
   gradient norm :     0.0000506 Eh/α   predicted    -0.1129021E-06 ( -64.88%)
   displ. norm   :     0.0078128 α      lambda       -0.1561708E-06
   maximum displ.:     0.0073141 α      in ANC's #1, #5, #6, ...

........................................................................
.............................. CYCLE   41 ..............................
........................................................................

 iter      E             dE          RMSdq      gap      omega  full diag
   1    -32.0772457 -0.320772E+02  0.296E-03    3.64       0.0  T
   2    -32.0772457 -0.427008E-09  0.174E-03    3.64      11.3  T
   3    -32.0772457  0.706706E-10  0.122E-04    3.64     161.4  T
   4    -32.0772457 -0.176783E-09  0.478E-05    3.64     410.2  T
   5    -32.0772457 -0.254303E-10  0.179E-05    3.64    1096.8  T
   6    -32.0772457 -0.306954E-11  0.817E-06    3.64    2399.1  T
   7    -32.0772457 -0.852651E-13  0.169E-06    3.64   11622.1  T
     SCC iter.                  ...        0 min,  0.083 sec
     gradient                   ...        0 min,  0.005 sec
 * total energy  :   -31.5559257 Eh     change       -0.2359880E-06 Eh
   gradient norm :     0.0000457 Eh/α   predicted    -0.7993125E-07 ( -66.13%)
   displ. norm   :     0.0061714 α      lambda       -0.1332025E-06
   maximum displ.:     0.0059475 α      in ANC's #1, #3, #5, ...

........................................................................
.............................. CYCLE   42 ..............................
........................................................................

 iter      E             dE          RMSdq      gap      omega  full diag
   1    -32.0772462 -0.320772E+02  0.249E-03    3.64       0.0  T
   2    -32.0772462 -0.328399E-09  0.147E-03    3.64      13.3  T
   3    -32.0772462  0.663789E-10  0.120E-04    3.64     164.1  T
   4    -32.0772462 -0.147821E-09  0.385E-05    3.64     510.0  T
   5    -32.0772462 -0.126192E-10  0.161E-05    3.64    1217.4  T
   6    -32.0772462 -0.353140E-11  0.698E-06    3.64    2808.2  T
   7    -32.0772462 -0.994760E-13  0.161E-06    3.64   12147.1  T
     SCC iter.                  ...        0 min,  0.073 sec
     gradient                   ...        0 min,  0.002 sec
 * total energy  :   -31.5559259 Eh     change       -0.2014857E-06 Eh
   gradient norm :     0.0000401 Eh/α   predicted    -0.6776491E-07 ( -66.37%)
   displ. norm   :     0.0057395 α      lambda       -0.1246094E-06
   maximum displ.:     0.0054676 α      in ANC's #1, #3, #4, ...
 * RMSD in coord.:     0.0610044 α      energy gain  -0.3870355E-04 Eh

generating ANC from model Hessian ...
Using Lindh-Hessian (1995)
 Shifting diagonal of input Hessian by   9.251730628675301E-003
 Lowest  eigenvalues of input Hessian
    0.000000    0.000000    0.000000    0.000000    0.000000    0.000000
    0.010000    0.010291    0.010769    0.011291    0.012180    0.013049
    0.015067    0.017740    0.018245    0.019611    0.024291    0.024411
 Highest eigenvalues
    1.364689    1.552739    1.576570    1.880857    1.987651    2.005910
 

........................................................................
.............................. CYCLE   43 ..............................
........................................................................

 iter      E             dE          RMSdq      gap      omega  full diag
   1    -32.0772473 -0.320772E+02  0.241E-03    3.64       0.0  T
   2    -32.0772473 -0.363009E-09  0.143E-03    3.64      13.8  T
   3    -32.0772473  0.518057E-10  0.123E-04    3.64     159.2  T
   4    -32.0772473 -0.129724E-09  0.402E-05    3.64     487.7  T
   5    -32.0772473 -0.109495E-10  0.161E-05    3.64    1218.0  T
   6    -32.0772473 -0.368772E-11  0.720E-06    3.64    2725.0  T
   7    -32.0772473 -0.120792E-12  0.150E-06    3.64   13083.6  T
     SCC iter.                  ...        0 min,  0.073 sec
     gradient                   ...        0 min,  0.002 sec
 * total energy  :   -31.5559261 Eh     change       -0.1917220E-06 Eh
   gradient norm :     0.0000356 Eh/α   predicted     0.0000000E+00 (-100.00%)
   displ. norm   :     0.0000533 α      lambda        0.0000000E+00
   maximum displ.:     0.0000495 α      in ANC's #1, #5, #8, ...

........................................................................
.............................. CYCLE   44 ..............................
........................................................................

 iter      E             dE          RMSdq      gap      omega  full diag
   1    -32.0772463 -0.320772E+02  0.259E-05    3.64       0.0  T
   2    -32.0772463 -0.355271E-12  0.145E-05    3.64    1354.8  T
   3    -32.0772463  0.113687E-12  0.432E-06    3.64    4545.0  T
   4    -32.0772463 -0.184741E-12  0.111E-06    3.64   17597.5  T
     SCC iter.                  ...        0 min,  0.071 sec
     gradient                   ...        0 min,  0.002 sec
 * total energy  :   -31.5559261 Eh     change       -0.1861995E-08 Eh
   gradient norm :     0.0000349 Eh/α   predicted    -0.1233561E-08 ( -33.75%)
   displ. norm   :     0.0000533 α      lambda        0.0000000E+00
   maximum displ.:     0.0000495 α      in ANC's #1, #5, #8, ...

   *** GEOMETRY OPTIMIZATION CONVERGED AFTER 44 ITERATIONS ***

------------------------------------------------------------------------
 total energy gain   :        -0.0138611 Eh       -8.6980 kcal/mol
 total RMSD          :         0.6127144 a0        0.3242 Å
 total power (kW/mol):        -0.8270971 (step)  -10.7124 (real)
------------------------------------------------------------------------

 ANCopt (total)                0 d,  0 h,  0 min,  3.397 sec
 optimizer setup                ...        0 min,  0.000 sec (  0.002%)
 model hessian                  ...        0 min,  0.025 sec (  0.730%)
 ANC generation                 ...        0 min,  0.001 sec (  0.030%)
 coordinate transformation      ...        0 min,  0.000 sec (  0.012%)
 single point calculation       ...        0 min,  3.364 sec ( 99.023%)
 optimization log               ...        0 min,  0.003 sec (  0.082%)
 hessian update                 ...        0 min,  0.001 sec (  0.018%)
 rational function              ...        0 min,  0.002 sec (  0.073%)

================
 final structure:
================
26
 xtb: 6.7.0 (08769fc)
P            1.78268538445259       -0.11699313045970       -2.86111478402709
C            0.23667154151765       -1.15903759518064       -3.00313775333635
H           -0.19860280139098       -0.91302855177367       -3.97563409454587
H            0.56573648059144       -2.20031626345745       -3.05881927753593
C           -0.80972193083736       -0.98532334094561       -1.91134488429648
H           -1.08128507354588        0.06328820554780       -1.80118196567071
H           -0.44923660742082       -1.35278163624945       -0.95369888820389
H           -1.70734538164238       -1.54607377435520       -2.16835992712521
C            0.97595832677084        1.51936839298686       -2.66346534410300
C            1.12014930945650        2.34588137412667       -1.55556792520588
C            0.24355056726113        1.98576427265580       -3.75380416866098
C            0.50866739772390        3.58771623419952       -1.52396028186224
C           -0.36928115476052        3.22282910630430       -3.72029031468353
C           -0.24301340590466        4.02722522537411       -2.59915952997105
H            1.70927089180526        2.03020826734425       -0.70814120660532
H            0.15844124294840        1.36663486495763       -4.63670746041778
H            0.62215246472819        4.21597984216990       -0.65179416894753
H           -0.94178152297048        3.56478333516832       -4.57062547733309
H           -0.72080259473372        4.99547277922938       -2.56844634201147
C            2.28879166983909       -0.48428709062002       -1.10465188186893
H            3.12141904214689        0.18830635777068       -0.87814836669847
H            1.47270236206671       -0.26937359024640       -0.41096170989175
C            2.75931220047771       -1.92574910089848       -0.95738214306977
H            3.53563593802536       -2.14789164989051       -1.68730783710532
H            1.93871959173821       -2.62327778052646       -1.11020669525240
H            3.16606506165676       -2.09301375323126        0.03888442842955
 
 Bond Distances (Angstroems)
 ---------------------------
P1-C2=1.8698         P1-C9=1.8351         P1-C20=1.8645        C2-P1=1.8698         C2-H3=1.0935         C2-H4=1.0935         
C2-C5=1.5222         H3-C2=1.0935         H4-C2=1.0935         C5-C2=1.5222         C5-H6=1.0888         C5-H7=1.0872         
C5-H8=1.0891         H6-C5=1.0888         H7-C5=1.0872         H8-C5=1.0891         C9-P1=1.8351         C9-C10=1.3897        
C9-C11=1.3938        C10-C9=1.3897        C10-C12=1.3846       C10-H15=1.0793       C11-C9=1.3938        C11-C13=1.3809       
C11-H16=1.0817       C12-C10=1.3846       C12-C14=1.3836       C12-H17=1.0809       C13-C11=1.3809       C13-C14=1.3856       
C13-H18=1.0806       C14-C12=1.3836       C14-C13=1.3856       C14-H19=1.0802       H15-C10=1.0793       H16-C11=1.0817       
H17-C12=1.0809       H18-C13=1.0806       H19-C14=1.0802       C20-P1=1.8645        C20-H21=1.0941       C20-H22=1.0924       
C20-C23=1.5234       H21-C20=1.0941       H22-C20=1.0924       C23-C20=1.5234       C23-H24=1.0885       C23-H25=1.0878       
C23-H26=1.0890       H24-C23=1.0885       H25-C23=1.0878       H26-C23=1.0890       
 C  H  Rav=1.0871 sigma=0.0051  Rmin=1.0793  Rmax=1.0941    15
 C  C  Rav=1.4205 sigma=0.0592  Rmin=1.3809  Rmax=1.5234     8
 P  C  Rav=1.8565 sigma=0.0153  Rmin=1.8351  Rmax=1.8698     3
 
 selected bond angles (degree)
 --------------------
C9-P1-C2= 98.14                C20-P1-C2=100.73               C20-P1-C9=101.16               H3-C2-P1=105.74                
H4-C2-P1=106.60                H4-C2-H3=106.78                C5-C2-P1=116.76                C5-C2-H3=109.79                
C5-C2-H4=110.61                H6-C5-C2=110.73                H7-C5-C2=111.42                H7-C5-H6=108.61                
H8-C5-C2=109.79                H8-C5-H6=108.31                H8-C5-H7=107.88                C10-C9-P1=124.79               
C11-C9-P1=116.43               C11-C9-C10=118.63              C12-C10-C9=120.38              H15-C10-C9=120.57              
H15-C10-C12=119.04             
 
 selected dihedral angles (degree)
 ---------------------------------
H3-C2-P1-C9= 70.49            H3-C2-P1-C20=173.56           H4-C2-P1-C9=183.88            H4-C2-P1-C20=286.95           
C5-C2-P1-C9=308.07            C5-C2-P1-C20= 51.14           H6-C5-C2-P1= 53.43            H6-C5-C2-H3=293.14            
H6-C5-C2-H4=175.54            H7-C5-C2-P1=292.43            H7-C5-C2-H3=172.14            H7-C5-C2-H4= 54.55            
H8-C5-C2-P1=172.98            H8-C5-C2-H3= 52.68            H8-C5-C2-H4=295.09            C10-C9-P1-C2=119.23           
C10-C9-P1-C20= 16.52          C11-C9-P1-C2=294.70           C11-C9-P1-C20=192.00          C12-C10-C9-P1=177.52          
C12-C10-C9-C11=  2.14         H15-C10-C9-P1=357.52          H15-C10-C9-C11=182.13         
           -------------------------------------------------
          |                Final Singlepoint                |
           -------------------------------------------------

          ...................................................
          :                      SETUP                      :
          :.................................................:
          :  # basis functions                  65          :
          :  # atomic orbitals                  64          :
          :  # shells                           38          :
          :  # electrons                        60          :
          :  max. iterations                  5000          :
          :  Hamiltonian                  GFN2-xTB          :
          :  restarted?                      false          :
          :  GBSA solvation                  false          :
          :  PC potential                    false          :
          :  electronic temp.          300.0000000     K    :
[...]
         :: total charge              -0.000000000000 e     ::
         :::::::::::::::::::::::::::::::::::::::::::::::::::::

           ------------------------------------------------- 
          |                Numerical Hessian                |
           ------------------------------------------------- 
step length          :   0.00500
SCC accuracy         :   0.30000
Hessian scale factor :   1.00000
frozen atoms in %    :   0.00000    0
RMS gradient         :   0.00003
estimated CPU  time      1.12 min
estimated wall time      0.14 min

writing file <hessian>.

 projected vibrational frequencies (cm⁻¹)
eigval :       -0.00    -0.00    -0.00     0.00     0.00     0.00
eigval :       27.93    69.52    80.69   127.10   129.21   199.57
eigval :      204.14   227.77   261.26   277.08   284.01   356.54
eigval :      363.06   407.00   472.77   585.99   638.43   657.13
eigval :      683.09   704.73   729.26   746.91   791.36   871.21
eigval :      894.55   925.13   931.19   968.65   974.28   998.60
eigval :     1012.30  1021.79  1065.59  1072.83  1085.80  1115.65
eigval :     1123.22  1181.87  1203.22  1225.72  1227.95  1250.91
eigval :     1266.82  1282.18  1316.97  1408.52  1410.68  1421.77
eigval :     1451.09  1454.70  1461.88  1497.36  1501.01  1504.77
eigval :     1508.57  1577.54  1589.13  2938.97  2942.44  2949.57
eigval :     2960.58  3011.47  3013.27  3023.92  3024.78  3034.15
eigval :     3039.04  3058.17  3068.32  3074.68  3087.05  3094.12
           -------------------------------------------------
          |                Property Printout                |
           -------------------------------------------------

    * Orbital Energies and Occupations

         #    Occupation            Energy/Eh            Energy/eV
      -------------------------------------------------------------
         1        2.0000           -0.6587453             -17.9254
       ...           ...                  ...                  ...
        18        2.0000           -0.4770719             -12.9818
        19        2.0000           -0.4740256             -12.8989
        20        2.0000           -0.4689959             -12.7620
        21        2.0000           -0.4616182             -12.5613
        22        2.0000           -0.4527191             -12.3191
        23        2.0000           -0.4451171             -12.1123
        24        2.0000           -0.4393327             -11.9549
        25        2.0000           -0.4246493             -11.5553
        26        2.0000           -0.4144314             -11.2773
        27        2.0000           -0.4077615             -11.0958
        28        2.0000           -0.4028320             -10.9616
        29        2.0000           -0.4006605             -10.9025
        30        2.0000           -0.3635819              -9.8936 (HOMO)
        31                         -0.2298773              -6.2553 (LUMO)
        32                         -0.2215458              -6.0286
        33                         -0.1543471              -4.2000
        34                         -0.1499865              -4.0813
        35                         -0.0933455              -2.5401
        36                          0.0102302               0.2784
        37                          0.0443827               1.2077
        38                          0.1065666               2.8998
        39                          0.1120523               3.0491
        40                          0.1164291               3.1682
        41                          0.1321176               3.5951
       ...                                ...                  ...
        64                          0.7999692              21.7683
      -------------------------------------------------------------
                  HL-Gap            0.1337046 Eh            3.6383 eV
             Fermi-level           -0.2967296 Eh           -8.0744 eV

     #   Z          covCN         q      C6AA      α(0)
     1  15 P        3.021    -0.113   165.377    23.102
     2   6 C        3.748    -0.044    21.427     6.602
     3   1 H        0.926     0.042     2.423     2.434
     4   1 H        0.926     0.041     2.439     2.442
     5   6 C        3.780    -0.094    22.320     6.730
     6   1 H        0.925     0.037     2.483     2.464
     7   1 H        0.925     0.038     2.479     2.462
     8   1 H        0.925     0.032     2.560     2.502
     9   6 C        2.915     0.010    27.790     8.645
    10   6 C        2.961    -0.033    28.832     8.807
    11   6 C        3.022    -0.030    28.726     8.792
    12   6 C        2.919    -0.031    28.768     8.796
    13   6 C        2.918    -0.030    28.753     8.793
    14   6 C        2.920    -0.031    28.776     8.797
    15   1 H        0.926     0.033     2.549     2.497
    16   1 H        0.925     0.034     2.531     2.488
    17   1 H        0.926     0.028     2.617     2.530
    18   1 H        0.926     0.029     2.603     2.523
    19   1 H        0.926     0.028     2.611     2.527
    20   6 C        3.748    -0.045    21.449     6.606
    21   1 H        0.926     0.041     2.441     2.443
    22   1 H        0.925     0.047     2.362     2.403
    23   6 C        3.819    -0.097    22.332     6.725
    24   1 H        0.925     0.041     2.431     2.438
    25   1 H        0.925     0.037     2.488     2.467
    26   1 H        0.925     0.032     2.556     2.500

 Mol. C6AA /au·bohr⁶  :       7601.038406
 Mol. C8AA /au·bohr⁸  :     202605.775588
 Mol. α(0) /au        :        139.516360


Wiberg/Mayer (AO) data.
largest (>0.10) Wiberg bond orders for each atom

 ---------------------------------------------------------------------------
     #   Z sym  total        # sym  WBO       # sym  WBO       # sym  WBO
 ---------------------------------------------------------------------------
     1  15 P    3.377 --    20 C    1.028     9 C    1.019     2 C    1.014
     2   6 C    3.994 --     1 P    1.014     5 C    1.012     4 H    0.956
                             3 H    0.954
     3   1 H    0.998 --     2 C    0.954
     4   1 H    0.998 --     2 C    0.956
     5   6 C    3.997 --     2 C    1.012     7 H    0.984     6 H    0.983
                             8 H    0.983
     6   1 H    0.999 --     5 C    0.983
     7   1 H    0.999 --     5 C    0.984
     8   1 H    0.999 --     5 C    0.983
     9   6 C    3.982 --    10 C    1.402    11 C    1.390     1 P    1.019
                            14 C    0.106
    10   6 C    3.993 --    12 C    1.440     9 C    1.402    15 H    0.963
                            13 C    0.107
    11   6 C    3.992 --    13 C    1.457     9 C    1.390    16 H    0.962
                            12 C    0.110
    12   6 C    3.993 --    14 C    1.442    10 C    1.440    17 H    0.970
                            11 C    0.110
    13   6 C    3.992 --    11 C    1.457    14 C    1.428    18 H    0.970
                            10 C    0.107
    14   6 C    3.991 --    12 C    1.442    13 C    1.428    19 H    0.971
                             9 C    0.106
    15   1 H    0.999 --    10 C    0.963
    16   1 H    0.999 --    11 C    0.962
    17   1 H    0.999 --    12 C    0.970
    18   1 H    0.999 --    13 C    0.970
    19   1 H    0.998 --    14 C    0.971
    20   6 C    3.995 --     1 P    1.028    23 C    1.015    21 H    0.956
                            22 H    0.951
    21   1 H    0.998 --    20 C    0.956
    22   1 H    0.998 --    20 C    0.951
    23   6 C    3.996 --    20 C    1.015    26 H    0.985    24 H    0.984
                            25 H    0.984
    24   1 H    0.998 --    23 C    0.984
    25   1 H    0.999 --    23 C    0.984
    26   1 H    0.999 --    23 C    0.985
 ---------------------------------------------------------------------------

Topologies differ in total number of bonds
Writing topology from bond orders to xtbtopo.mol

molecular dipole:
                 x           y           z       tot (Debye)
 q only:       -0.169      -0.190       0.238
   full:       -0.424      -0.128       0.494       1.686
molecular quadrupole (traceless):
                xx          xy          yy          xz          yz          zz
 q only:       -0.359      -1.101       1.689       3.555       1.343      -1.330
  q+dip:       -2.647      -2.331       4.713       9.339       1.795      -2.066
   full:       -1.495      -1.107       4.657       8.429       0.982      -3.162

           -------------------------------------------------
          |                Geometry Summary                 |
           -------------------------------------------------

      molecular mass/u    :      166.2002322
   center of mass at/Å    :        0.8850824       0.8749851      -2.3571009
  moments of inertia/u·Å² :        0.2862605E+03   0.8251182E+03   0.9284585E+03
rotational constants/cm⁻¹ :        0.5888914E-01   0.2043057E-01   0.1815658E-01

 * 24 selected distances

     #   Z          #   Z                                           value/Å
     2   6 C        3   1 H                                       1.0934960
     2   6 C        4   1 H                                       1.0934558
     2   6 C        5   6 C                                       1.5222116
     5   6 C        6   1 H                                       1.0887924
     5   6 C        7   1 H                                       1.0872264
     5   6 C        8   1 H                                       1.0891400
     9   6 C       10   6 C                                       1.3897308
     9   6 C       11   6 C                                       1.3938384
    10   6 C       12   6 C                                       1.3845806
    11   6 C       13   6 C                                       1.3809474
    12   6 C       14   6 C                                       1.3835628
    13   6 C       14   6 C                                       1.3856158
    10   6 C       15   1 H                                       1.0792803 (min)
    11   6 C       16   1 H                                       1.0817039
    12   6 C       17   1 H                                       1.0808645
    13   6 C       18   1 H                                       1.0806292
    14   6 C       19   1 H                                       1.0801525
     1  15 P       20   6 C                                       1.8644600 (max)
    20   6 C       21   1 H                                       1.0940541
    20   6 C       22   1 H                                       1.0924266
    20   6 C       23   6 C                                       1.5234471
    23   6 C       24   1 H                                       1.0884933
    23   6 C       25   1 H                                       1.0877840
    23   6 C       26   1 H                                       1.0890237

 * 3 distinct bonds (by element types)

   Z      Z             #   av. dist./Å        max./Å        min./Å
   1 H    6 C          15     1.0871015     1.0940541     1.0792803
   6 C    6 C           8     1.4204918     1.5234471     1.3809474
   6 C   15 P           1     1.8644600     1.8644600     1.8644600

           -------------------------------------------------
          |               Frequency Printout                |
           -------------------------------------------------
 projected vibrational frequencies (cm⁻¹)
eigval :       -0.00    -0.00    -0.00     0.00     0.00     0.00
eigval :       27.93    69.52    80.69   127.10   129.21   199.57
eigval :      204.14   227.77   261.26   277.08   284.01   356.54
eigval :      363.06   407.00   472.77   585.99   638.43   657.13
eigval :      683.09   704.73   729.26   746.91   791.36   871.21
eigval :      894.55   925.13   931.19   968.65   974.28   998.60
eigval :     1012.30  1021.79  1065.59  1072.83  1085.80  1115.65
eigval :     1123.22  1181.87  1203.22  1225.72  1227.95  1250.91
eigval :     1266.82  1282.18  1316.97  1408.52  1410.68  1421.77
eigval :     1451.09  1454.70  1461.88  1497.36  1501.01  1504.77
eigval :     1508.57  1577.54  1589.13  2938.97  2942.44  2949.57
eigval :     2960.58  3011.47  3013.27  3023.92  3024.78  3034.15
eigval :     3039.04  3058.17  3068.32  3074.68  3087.05  3094.12
 reduced masses (amu)
   1: 13.48   2: 12.74   3: 11.68   4: 13.17   5: 11.92   6: 14.68   7:  9.93   8:  9.13
   9:  9.64  10:  6.20  11: 10.93  12:  7.43  13:  3.30  14:  9.52  15:  6.44  16:  9.89
  17: 11.23  18: 13.76  19:  9.08  20: 19.03  21: 13.15  22: 11.18  23: 13.87  24: 10.50
  25: 12.58  26: 15.63  27:  4.47  28:  5.42  29:  4.04  30:  3.33  31:  3.58  32:  4.15
  33:  2.98  34: 10.14  35:  3.64  36:  3.15  37:  3.72  38:  3.91  39:  9.51  40:  9.32
  41:  8.36  42:  8.49  43:  4.43  44:  1.30  45:  1.99  46:  3.62  47:  3.30  48:  4.18
  49:  4.15  50:  3.37  51: 11.92  52:  2.93  53:  2.95  54:  8.59  55:  4.48  56:  2.40
  57:  5.28  58:  1.55  59:  1.54  60:  1.54  61:  1.56  62: 11.43  63: 11.44  64:  1.97
  65:  1.97  66:  1.49  67:  1.49  68:  1.87  69:  1.87  70:  1.72  71:  1.87  72:  1.41
  73:  1.55  74:  1.79  75:  1.77  76:  1.83  77:  1.88  78:  1.86
 IR intensities (km·mol⁻¹)
   1:  0.00   2:  0.17   3:  0.07   4:  0.06   5:  0.09   6:  0.09   7:  0.07   8:  0.06
   9:  0.16  10:  0.45  11:  0.14  12:  0.06  13:  0.14  14:  0.14  15:  0.12  16:  0.28
  17:  0.45  18:  0.38  19:  0.04  20:  1.65  21:  4.79  22:  0.04  23: 10.28  24:  2.95
  25:  0.17  26: 25.70  27: 34.56  28: 18.05  29: 19.66  30:  0.24  31:  0.04  32:  0.06
  33:  0.01  34:  1.86  35:  1.28  36:  2.53  37:  2.23  38:  8.44  39:  9.98  40:  7.13
  41:  0.04  42:  1.20  43:  0.16  44:  0.03  45:  0.88  46:  2.00  47:  4.05  48:  4.19
  49:  5.39  50:  0.37  51:  0.38  52:  1.43  53:  2.27  54:  0.77  55:  1.25  56:  1.21
  57:  0.15  58:  3.74  59:  0.74  60:  0.94  61:  1.23  62:  0.53  63:  5.19  64: 20.90
  65: 19.75  66:  9.45  67: 22.80  68: 49.28  69: 51.42  70: 25.05  71: 29.70  72: 25.84
  73: 21.46  74: 14.81  75:  5.67  76: 52.15  77: 77.87  78: 26.94
 Raman intensities (Ä⁴*amu⁻¹)
   1:  0.00   2:  0.00   3:  0.00   4:  0.00   5:  0.00   6:  0.00   7:  0.00   8:  0.00
   9:  0.00  10:  0.00  11:  0.00  12:  0.00  13:  0.00  14:  0.00  15:  0.00  16:  0.00
  17:  0.00  18:  0.00  19:  0.00  20:  0.00  21:  0.00  22:  0.00  23:  0.00  24:  0.00
  25:  0.00  26:  0.00  27:  0.00  28:  0.00  29:  0.00  30:  0.00  31:  0.00  32:  0.00
  33:  0.00  34:  0.00  35:  0.00  36:  0.00  37:  0.00  38:  0.00  39:  0.00  40:  0.00
  41:  0.00  42:  0.00  43:  0.00  44:  0.00  45:  0.00  46:  0.00  47:  0.00  48:  0.00
  49:  0.00  50:  0.00  51:  0.00  52:  0.00  53:  0.00  54:  0.00  55:  0.00  56:  0.00
  57:  0.00  58:  0.00  59:  0.00  60:  0.00  61:  0.00  62:  0.00  63:  0.00  64:  0.00
  65:  0.00  66:  0.00  67:  0.00  68:  0.00  69:  0.00  70:  0.00  71:  0.00  72:  0.00
  73:  0.00  74:  0.00  75:  0.00  76:  0.00  77:  0.00  78:  0.00
 output can be read by thermo (or use thermo option).
 writing <g98.out> molden fake output.
 recommended (thermochemical) frequency scaling factor: 1.0
           -------------------------------------------------
          |             Thermodynamic Functions             |
           -------------------------------------------------

Molecule has no symmetry elements
It seems to be the C1 point group
c1  symmetry found (for desy threshold:  0.10E+00) used in thermo

          ...................................................
          :                      SETUP                      :
          :.................................................:
          :  # frequencies                          72      :
          :  # imaginary freq.                       0      :
          :  linear?                             false      :
          :  only rotor calc.                    false      :
          :  symmetry                               c1      :
          :  rotational number                       1      :
          :  scaling factor                  1.0000000      :
          :  rotor cutoff                   50.0000000 cm⁻¹ :
          :  imag. cutoff                  -20.0000000 cm⁻¹ :
          :.................................................:

    mode    ω/cm⁻¹     T·S(HO)/kcal·mol⁻¹    T·S(FR)/kcal·mol⁻¹   T·S(vib)
   ------------------------------------------------------------------------
       1     27.93    -1.78037 (  8.87%)    -1.22881 ( 91.13%)    -1.27774
       2     69.52    -1.24234 ( 78.89%)    -0.95879 ( 21.11%)    -1.18249
       3     80.69    -1.15504 ( 87.15%)    -0.91468 ( 12.85%)    -1.12416
       4    127.10    -0.89131 ( 97.66%)    -0.78011 (  2.34%)    -0.88871
       5    129.21    -0.88186 ( 97.81%)    -0.77524 (  2.19%)    -0.87952
       6    199.57    -0.63716 ( 99.61%)    -0.64647 (  0.39%)    -0.63720
       7    204.14    -0.62476 ( 99.64%)    -0.63977 (  0.36%)    -0.62481
       8    227.77    -0.56542 ( 99.77%)    -0.60732 (  0.23%)    -0.56552
       9    261.26    -0.49294 ( 99.87%)    -0.56669 (  0.13%)    -0.49304
      10    277.08    -0.46262 ( 99.89%)    -0.54927 (  0.11%)    -0.46271
      11    284.01    -0.45003 ( 99.90%)    -0.54196 (  0.10%)    -0.45012
   ------------------------------------------------------------------------

   temp. (K)  partition function   enthalpy   heat capacity  entropy
                                   cal/mol     cal/K/mol   cal/K/mol   J/K/mol
 298.15  VIB  0.119E+05             6094.776     39.514     37.092
         ROT  0.113E+07              888.752      2.981     30.681
         INT  0.135E+11             6983.528     42.495     67.773
         TR   0.207E+28             1481.254      4.968     41.214
         TOT                        8464.7822    47.4629   108.9869   456.0010

       T/K    H(0)-H(T)+PV         H(T)/Eh          T*S/Eh         G(T)/Eh
   ------------------------------------------------------------------------
    298.15    0.134895E-01    0.232532E+00    0.517832E-01    0.180749E+00
   ------------------------------------------------------------------------

         :::::::::::::::::::::::::::::::::::::::::::::::::::::
         ::                  THERMODYNAMIC                  ::
         :::::::::::::::::::::::::::::::::::::::::::::::::::::
         :: total free energy         -31.375177331576 Eh   ::
         ::.................................................::
         :: total energy              -31.555926099568 Eh   ::
         :: zero point energy           0.219042454512 Eh   ::
         :: G(RRHO) w/o ZPVE           -0.038293686520 Eh   ::
         :: G(RRHO) contrib.            0.180748767992 Eh   ::
         :::::::::::::::::::::::::::::::::::::::::::::::::::::

optimized geometry written to: xtbopt.xyz


           -------------------------------------------------
          | TOTAL ENERGY              -31.555926099568 Eh   |
          | TOTAL ENTHALPY            -31.323394156039 Eh   |
          | TOTAL FREE ENERGY         -31.375177331576 Eh   |
          | GRADIENT NORM               0.000034867020 Eh/α |
          | HOMO-LUMO GAP               3.638288487144 eV   |
           -------------------------------------------------

------------------------------------------------------------------------
 * finished run on 2025/07/14 at 11:33:50.108     
------------------------------------------------------------------------
 total:
 * wall-time:     0 d,  0 h,  0 min,  6.726 sec
 *  cpu-time:     0 d,  0 h,  1 min,  8.413 sec
 * ratio c/w:    10.171 speedup
 SCF:
 * wall-time:     0 d,  0 h,  0 min,  0.087 sec
 *  cpu-time:     0 d,  0 h,  0 min,  1.038 sec
 * ratio c/w:    11.967 speedup
 ANC optimizer:
 * wall-time:     0 d,  0 h,  0 min,  3.471 sec
 *  cpu-time:     0 d,  0 h,  0 min, 41.512 sec
 * ratio c/w:    11.958 speedup
 analytical hessian:
 * wall-time:     0 d,  0 h,  0 min,  3.158 sec
 *  cpu-time:     0 d,  0 h,  0 min, 25.768 sec
 * ratio c/w:     8.159 speedup

