      -----------------------------------------------------------      
     |                   =====================                   |     
     |                           x T B                           |     
     |                   =====================                   |     
     |                         S. Grimme                         |     
     |          Mulliken Center for Theoretical Chemistry        |     
     |                    University of Bonn                     |     
      -----------------------------------------------------------      

   * xtb version 6.7.0 (08769fc) compiled by 'albert@albert-system' on 2024-03-04

   xtb is free software: you can redistribute it and/or modify it under
   the terms of the GNU Lesser General Public License as published by
   the Free Software Foundation, either version 3 of the License, or
   (at your option) any later version.
   
   xtb is distributed in the hope that it will be useful,
   but WITHOUT ANY WARRANTY; without even the implied warranty of
   MERCHANTABILITY or FITNESS FOR A PARTICULAR PURPOSE.  See the
   GNU Lesser General Public License for more details.
   
   Cite this work as:
   * C. Bannwarth, E. Caldeweyher, S. Ehlert, A. Hansen, P. Pracht,
     J. Seibert, S. Spicher, S. Grimme, WIREs Comput. Mol. Sci., 2020, 11,
     e01493. DOI: 10.1002/wcms.1493
   
   for GFN2-xTB:
   * C. Bannwarth, S. Ehlert and S. Grimme., J. Chem. Theory Comput., 2019,
     15, 1652-1671. DOI: 10.1021/acs.jctc.8b01176
   for GFN1-xTB:
   * S. Grimme, C. Bannwarth, P. Shushkov, J. Chem. Theory Comput., 2017,
     13, 1989-2009. DOI: 10.1021/acs.jctc.7b00118
   for GFN0-xTB:
   * P. Pracht, E. Caldeweyher, S. Ehlert, S. Grimme, ChemRxiv, 2019, preprint.
     DOI: 10.26434/chemrxiv.8326202.v1
   for GFN-FF:
   * S. Spicher and S. Grimme, Angew. Chem. Int. Ed., 2020, 59, 15665-15673.
     DOI: 10.1002/anie.202004239
   
   for ALPB and GBSA implicit solvation:
   * S. Ehlert, M. Stahn, S. Spicher, S. Grimme, J. Chem. Theory Comput.,
     2021, 17, 4250-4261. DOI: 10.1021/acs.jctc.1c00471
   
   for ddCOSMO and CPCM-X implicit solvation:
   * M. Stahn, S. Ehlert, S. Grimme, J. Phys. Chem. A,
     2023, XX, XXXX-XXXX. DOI: 10.1021/acs.jpca.3c04382
   
   for DFT-D4:
   * E. Caldeweyher, C. Bannwarth and S. Grimme, J. Chem. Phys., 2017,
     147, 034112. DOI: 10.1063/1.4993215
   * E. Caldeweyher, S. Ehlert, A. Hansen, H. Neugebauer, S. Spicher,
     C. Bannwarth and S. Grimme, J. Chem. Phys., 2019, 150, 154122.
     DOI: 10.1063/1.5090222
   * E. Caldeweyher, J.-M. Mewes, S. Ehlert and S. Grimme, Phys. Chem. Chem. Phys.
     2020, 22, 8499-8512. DOI: 10.1039/D0CP00502A
   
   for sTDA-xTB:
   * S. Grimme and C. Bannwarth, J. Chem. Phys., 2016, 145, 054103.
     DOI: 10.1063/1.4959605
   
   in the mass-spec context:
   * V. Asgeirsson, C. Bauer and S. Grimme, Chem. Sci., 2017, 8, 4879.
     DOI: 10.1039/c7sc00601b
   * J. Koopman and S. Grimme, ACS Omega 2019, 4, 12, 15120-15133.
     DOI: 10.1021/acsomega.9b02011
   
   for metadynamics refer to:
   * S. Grimme, J. Chem. Theory Comput., 2019, 155, 2847-2862
     DOI: 10.1021/acs.jctc.9b00143
   
   for SPH calculations refer to:
   * S. Spicher and S. Grimme, J. Chem. Theory Comput., 2021, 17, 1701-1714
     DOI: 10.1021/acs.jctc.0c01306
   
   for ONIOM refer to:
   * C. Plett, A. Katbashev, S. Ehlert, S. Grimme, M. Bursch,
     Phys. Chem. Chem. Phys., 2023, 25, 17860-17868. DOI: 10.1039/D3CP02178E
   
   for DIPRO refer to:
   * J. Kohn, N. Gildemeister, S. Grimme, D. Fazzi, A. Hansen,
     J. Chem. Phys., 2023, just accepted.
   
   for PTB refer to:
   * S. Grimme, M. Mueller, A. Hansen, J. Chem. Phys., 2023, 158, 124111.
     DOI: 10.1063/5.0137838
   
   with help from (in alphabetical order)
   P. Atkinson, C. Bannwarth, F. Bohle, G. Brandenburg, E. Caldeweyher
   M. Checinski, S. Dohm, S. Ehlert, S. Ehrlich, I. Gerasimov, C. Hölzer
   A. Katbashev, J. Kohn, J. Koopman, C. Lavigne, S. Lehtola, F. März, M. Müller,
   F. Musil, H. Neugebauer, J. Pisarek, C. Plett, P. Pracht, F. Pultar,
   J. Seibert, P. Shushkov, S. Spicher, M. Stahn, M. Steiner, T. Strunk,
   J. Stückrath, T. Rose, and J. Unsleber
   
 * started run on 2025/07/14 at 11:38:51.540     
   ID    Z sym.   atoms
    1   15 P      1
    2    6 C      2, 5, 9-14, 20, 23
    3    1 H      3, 4, 6-8, 15-19, 21, 22, 24-26

           -------------------------------------------------
          |                Calculation Setup                |
           -------------------------------------------------

          program call               : /home/minenky/programs/xtb/xtb-dist/bin/xtb m1_00_PEt2Ph-PBE0-D3-TZ-uniMM_8.xyz --charge 0 --T --ohess extreme --cycles 5000 --acc 0.01 --iterations 5000
          coordinate file            : m1_00_PEt2Ph-PBE0-D3-TZ-uniMM_8.xyz
          omp threads                :                    12

########################################################################
[WARNING] Please study the warnings concerning your input carefully
-1- prog_main_parseArguments: Unknown option '--T' provided
########################################################################

           -------------------------------------------------
          |                 G F N 2 - x T B                 |
           -------------------------------------------------

        Reference                      10.1021/acs.jctc.8b01176
      * Hamiltonian:
        H0-scaling (s, p, d)           1.850000    2.230000    2.230000
        zeta-weighting                 0.500000
      * Dispersion:
        s8                             2.700000
        a1                             0.520000
        a2                             5.000000
        s9                             5.000000
      * Repulsion:
        kExp                           1.500000    1.000000
        rExp                           1.000000
      * Coulomb:
        alpha                          2.000000
        third order                    shell-resolved
        anisotropic                    true
        a3                             3.000000
        a5                             4.000000
        cn-shift                       1.200000
        cn-exp                         4.000000
        max-rad                        5.000000


          ...................................................
          :                      SETUP                      :
          :.................................................:
          :  # basis functions                  65          :
          :  # atomic orbitals                  64          :
          :  # shells                           38          :
          :  # electrons                        60          :
          :  max. iterations                  5000          :
          :  Hamiltonian                  GFN2-xTB          :
          :  restarted?                      false          :
          :  GBSA solvation                  false          :
          :  PC potential                    false          :
          :  electronic temp.          300.0000000     K    :
          :  accuracy                    0.0100000          :
          :  -> integral cutoff          0.4500000E+02      :
          :  -> integral neglect         0.1000000E-09      :
          :  -> SCF convergence          0.1000000E-07 Eh   :
          :  -> wf. convergence          0.1000000E-05 e    :
          :  Broyden damping             0.4000000          :
          :  net charge                          0          :
          :  unpaired electrons                  0          :
          ...................................................

 iter      E             dE          RMSdq      gap      omega  full diag
   1    -32.0138733 -0.320139E+02  0.364E+00    4.00       0.0  T
   2    -32.0597837 -0.459104E-01  0.217E+00    3.47       1.0  T
   3    -32.0595918  0.191867E-03  0.890E-01    3.18       1.0  T
   4    -32.0603419 -0.750061E-03  0.291E-01    3.19       1.0  T
   5    -32.0619326 -0.159067E-02  0.119E-01    3.24       1.0  T
   6    -32.0621461 -0.213510E-03  0.409E-02    3.23       1.0  T
   7    -32.0621581 -0.120336E-04  0.167E-02    3.24       1.2  T
   8    -32.0621588 -0.710498E-06  0.698E-03    3.24       2.8  T
   9    -32.0621593 -0.541693E-06  0.156E-03    3.24      12.6  T
  10    -32.0621594 -0.312568E-07  0.613E-04    3.24      32.0  T
  11    -32.0621594 -0.965485E-10  0.307E-04    3.24      63.8  T
  12    -32.0621594 -0.713811E-09  0.503E-05    3.24     389.9  T
  13    -32.0621594 -0.868283E-11  0.234E-05    3.24     838.6  T
  14    -32.0621594 -0.252953E-11  0.896E-06    3.24    2188.8  T
  15    -32.0621594 -0.277112E-12  0.350E-06    3.24    5605.8  T

   *** convergence criteria satisfied after 15 iterations ***

         #    Occupation            Energy/Eh            Energy/eV
      -------------------------------------------------------------
         1        2.0000           -0.6593243             -17.9411
       ...           ...                  ...                  ...
        24        2.0000           -0.4377750             -11.9125
        25        2.0000           -0.4251228             -11.5682
        26        2.0000           -0.4226695             -11.5014
        27        2.0000           -0.4079157             -11.1000
        28        2.0000           -0.4038458             -10.9892
        29        2.0000           -0.3981931             -10.8354
        30        2.0000           -0.3536847              -9.6243 (HOMO)
        31                         -0.2347335              -6.3874 (LUMO)
        32                         -0.2237660              -6.0890
        33                         -0.1505601              -4.0969
        34                         -0.1358278              -3.6961
        35                         -0.0885451              -2.4094
       ...                                ...                  ...
        64                          0.7964405              21.6722
      -------------------------------------------------------------
                  HL-Gap            0.1189512 Eh            3.2368 eV
             Fermi-level           -0.2942091 Eh           -8.0058 eV

 SCC (total)                   0 d,  0 h,  0 min,  0.099 sec
 SCC setup                      ...        0 min,  0.000 sec (  0.134%)
 Dispersion                     ...        0 min,  0.000 sec (  0.123%)
 classical contributions        ...        0 min,  0.000 sec (  0.010%)
 integral evaluation            ...        0 min,  0.002 sec (  1.806%)
 iterations                     ...        0 min,  0.094 sec ( 94.715%)
 molecular gradient             ...        0 min,  0.003 sec (  3.098%)
 printout                       ...        0 min,  0.000 sec (  0.097%)

         :::::::::::::::::::::::::::::::::::::::::::::::::::::
         ::                     SUMMARY                     ::
         :::::::::::::::::::::::::::::::::::::::::::::::::::::
         :: total energy             -31.547401514003 Eh    ::
         :: gradient norm              0.052695838822 Eh/a0 ::
         :: HOMO-LUMO gap              3.236828059140 eV    ::
         ::.................................................::
         :: SCC energy               -32.061954400108 Eh    ::
         :: -> isotropic ES            0.004139142085 Eh    ::
         :: -> anisotropic ES          0.005918538603 Eh    ::
         :: -> anisotropic XC          0.022443107871 Eh    ::
         :: -> dispersion             -0.023290347466 Eh    ::
         :: repulsion energy           0.514552886105 Eh    ::
         :: add. restraining           0.000000000000 Eh    ::
         :: total charge               0.000000000000 e     ::
         :::::::::::::::::::::::::::::::::::::::::::::::::::::

      ----------------------------------------------------------- 
     |                   =====================                   |
     |                        A N C O P T                        |
     |                   =====================                   |
     |               Approximate Normal Coordinate               |
     |                Rational Function Optimizer                |
      ----------------------------------------------------------- 
      ----------------------------------------------------------- 
     |                   =====================                   |
     |                        A N C O P T                        |
     |                   =====================                   |
     |               Approximate Normal Coordinate               |
     |                Rational Function Optimizer                |
      ----------------------------------------------------------- 

          ...................................................
          :                      SETUP                      :
          :.................................................:
          :   optimization level           extreme          :
          :   max. optcycles                  5000          :
          :   ANC micro-cycles                  20          :
          :   degrees of freedom                72          :
          :.................................................:
          :   RF solver                   davidson          :
          :   write xtbopt.log                true          :
          :   linear?                        false          :
          :   energy convergence         0.5000000E-07 Eh   :
          :   grad. convergence          0.5000000E-04 Eh/α :
          :   maxmium RF displ.          1.0000000          :
          :   Hlow (freq-cutoff)         0.1000000E-01      :
          :   Hmax (freq-cutoff)         5.0000000          :
          :   S6 in model hess.         20.0000000          :
          ...................................................

generating ANC from model Hessian ...
Using Lindh-Hessian (1995)
 Shifting diagonal of input Hessian by   9.118269309961780E-003
 Lowest  eigenvalues of input Hessian
    0.000000    0.000000    0.000000    0.000000    0.000000    0.000000
    0.010000    0.010113    0.010555    0.011283    0.011708    0.012622
    0.015205    0.017157    0.018819    0.019036    0.023879    0.024164
 Highest eigenvalues
    1.346782    1.534309    1.561846    1.863383    1.965420    1.985610
 

........................................................................
.............................. CYCLE    1 ..............................
........................................................................

 iter      E             dE          RMSdq      gap      omega  full diag
   1    -32.0621594 -0.320622E+02  0.106E-06    3.24       0.0  T
   2    -32.0621594  0.213163E-13  0.638E-07    3.24   30747.5  T
   3    -32.0621594 -0.710543E-14  0.384E-07    3.24   51119.5  T
     SCC iter.                  ...        0 min,  0.087 sec
     gradient                   ...        0 min,  0.002 sec
 * total energy  :   -31.5474015 Eh     change       -0.2913225E-12 Eh
   gradient norm :     0.0526958 Eh/α   predicted     0.0000000E+00 (-100.00%)
   displ. norm   :     0.3393817 α      lambda       -0.1002155E-01
   maximum displ.:     0.1772427 α      in ANC's #13, #8, #12, ...

........................................................................
.............................. CYCLE    2 ..............................
........................................................................

 iter      E             dE          RMSdq      gap      omega  full diag
   1    -32.0674720 -0.320675E+02  0.450E-01    3.54       0.0  T
   2    -32.0677894 -0.317442E-03  0.207E-01    3.60       1.0  T
   3    -32.0678224 -0.330010E-04  0.747E-02    3.64       1.0  T
   4    -32.0678203  0.210995E-05  0.357E-02    3.64       1.0  T
   5    -32.0678281 -0.776368E-05  0.788E-03    3.64       2.5  T
   6    -32.0678292 -0.111729E-05  0.398E-03    3.64       4.9  T
   7    -32.0678293 -0.761759E-07  0.111E-03    3.64      17.6  T
   8    -32.0678293 -0.224685E-08  0.448E-04    3.64      43.7  T
   9    -32.0678293 -0.210609E-08  0.151E-04    3.64     130.0  T
  10    -32.0678293 -0.290811E-09  0.643E-05    3.64     305.2  T
  11    -32.0678293 -0.131593E-10  0.311E-05    3.64     631.3  T
  12    -32.0678293 -0.871125E-11  0.891E-06    3.64    2201.7  T
  13    -32.0678293 -0.419220E-12  0.443E-06    3.64    4427.6  T
     SCC iter.                  ...        0 min,  0.090 sec
     gradient                   ...        0 min,  0.002 sec
 * total energy  :   -31.5526803 Eh     change       -0.5278757E-02 Eh
   gradient norm :     0.0149071 Eh/α   predicted    -0.5588190E-02 (   5.86%)
   displ. norm   :     0.2273327 α      lambda       -0.1329162E-02
   maximum displ.:     0.1430458 α      in ANC's #6, #12, #13, ...

........................................................................
.............................. CYCLE    3 ..............................
........................................................................

 iter      E             dE          RMSdq      gap      omega  full diag
   1    -32.0720691 -0.320721E+02  0.101E-01    3.64       0.0  T
   2    -32.0720719 -0.277283E-05  0.632E-02    3.63       1.0  T
   3    -32.0720714  0.506692E-06  0.105E-02    3.63       1.9  T
   4    -32.0720722 -0.877613E-06  0.363E-03    3.63       5.4  T
   5    -32.0720723 -0.482860E-07  0.101E-03    3.63      19.4  T
   6    -32.0720723 -0.160430E-07  0.653E-04    3.63      30.0  T
   7    -32.0720723 -0.314959E-08  0.170E-04    3.63     115.2  T
   8    -32.0720723 -0.116309E-09  0.650E-05    3.63     301.5  T
   9    -32.0720723 -0.126263E-10  0.356E-05    3.63     551.6  T
  10    -32.0720723 -0.915179E-11  0.123E-05    3.63    1594.5  T
  11    -32.0720723 -0.134293E-11  0.474E-06    3.63    4138.4  T
  12    -32.0720723 -0.426326E-13  0.196E-06    3.63   10020.9  T
     SCC iter.                  ...        0 min,  0.080 sec
     gradient                   ...        0 min,  0.002 sec
 * total energy  :   -31.5536346 Eh     change       -0.9543488E-03 Eh
   gradient norm :     0.0066016 Eh/α   predicted    -0.6989338E-03 ( -26.76%)
   displ. norm   :     0.2740405 α      lambda       -0.7180913E-03
   maximum displ.:     0.1923284 α      in ANC's #6, #4, #13, ...

........................................................................
.............................. CYCLE    4 ..............................
........................................................................

 iter      E             dE          RMSdq      gap      omega  full diag
   1    -32.0738050 -0.320738E+02  0.832E-02    3.63       0.0  T
   2    -32.0738061 -0.106580E-05  0.503E-02    3.63       1.0  T
   3    -32.0738059  0.184584E-06  0.625E-03    3.63       3.1  T
   4    -32.0738062 -0.343411E-06  0.300E-03    3.63       6.5  T
   5    -32.0738063 -0.642627E-07  0.111E-03    3.63      17.7  T
   6    -32.0738063 -0.145143E-07  0.547E-04    3.63      35.8  T
   7    -32.0738063 -0.830738E-09  0.126E-04    3.63     155.6  T
   8    -32.0738063 -0.446860E-10  0.598E-05    3.63     327.8  T
   9    -32.0738063 -0.121219E-10  0.266E-05    3.63     738.4  T
  10    -32.0738063 -0.726885E-11  0.970E-06    3.63    2022.4  T
  11    -32.0738063 -0.611067E-12  0.357E-06    3.63    5486.9  T
     SCC iter.                  ...        0 min,  0.079 sec
     gradient                   ...        0 min,  0.002 sec
 * total energy  :   -31.5540811 Eh     change       -0.4464933E-03 Eh
   gradient norm :     0.0038205 Eh/α   predicted    -0.3860147E-03 ( -13.55%)
   displ. norm   :     0.1489079 α      lambda       -0.1504676E-03
   maximum displ.:     0.1095096 α      in ANC's #6, #4, #2, ...

........................................................................
.............................. CYCLE    5 ..............................
........................................................................

 iter      E             dE          RMSdq      gap      omega  full diag
   1    -32.0741579 -0.320742E+02  0.350E-02    3.62       0.0  T
   2    -32.0741582 -0.274491E-06  0.202E-02    3.62       1.0  T
   3    -32.0741581  0.104534E-06  0.315E-03    3.62       6.2  T
   4    -32.0741582 -0.135264E-06  0.139E-03    3.62      14.1  T
   5    -32.0741582 -0.275936E-07  0.597E-04    3.62      32.8  T
   6    -32.0741582 -0.187649E-08  0.259E-04    3.62      75.7  T
   7    -32.0741582 -0.402167E-11  0.658E-05    3.62     298.0  T
   8    -32.0741582 -0.618954E-10  0.308E-05    3.62     637.0  T
   9    -32.0741582 -0.822098E-11  0.146E-05    3.62    1339.3  T
  10    -32.0741582 -0.117240E-11  0.602E-06    3.62    3255.9  T
  11    -32.0741582 -0.184741E-12  0.192E-06    3.62   10196.5  T
     SCC iter.                  ...        0 min,  0.077 sec
     gradient                   ...        0 min,  0.002 sec
 * total energy  :   -31.5541889 Eh     change       -0.1078052E-03 Eh
   gradient norm :     0.0030594 Eh/α   predicted    -0.7690432E-04 ( -28.66%)
   displ. norm   :     0.1226285 α      lambda       -0.8360091E-04
   maximum displ.:     0.0782975 α      in ANC's #6, #4, #2, ...

........................................................................
.............................. CYCLE    6 ..............................
........................................................................

 iter      E             dE          RMSdq      gap      omega  full diag
   1    -32.0743332 -0.320743E+02  0.358E-02    3.62       0.0  T
   2    -32.0743335 -0.280618E-06  0.207E-02    3.62       1.0  T
   3    -32.0743334  0.905363E-07  0.346E-03    3.62       5.7  T
   4    -32.0743335 -0.129881E-06  0.947E-04    3.62      20.7  T
   5    -32.0743335 -0.111635E-07  0.523E-04    3.62      37.5  T
   6    -32.0743335 -0.188386E-08  0.181E-04    3.62     108.2  T
   7    -32.0743335  0.207621E-10  0.604E-05    3.62     324.6  T
   8    -32.0743335 -0.419362E-10  0.200E-05    3.62     981.2  T
   9    -32.0743335 -0.428457E-11  0.975E-06    3.62    2011.0  T
  10    -32.0743335 -0.518696E-12  0.498E-06    3.62    3938.8  T
     SCC iter.                  ...        0 min,  0.075 sec
     gradient                   ...        0 min,  0.002 sec
 * total energy  :   -31.5542479 Eh     change       -0.5896380E-04 Eh
   gradient norm :     0.0015915 Eh/α   predicted    -0.4243285E-04 ( -28.04%)
   displ. norm   :     0.1622091 α      lambda       -0.4161322E-04
   maximum displ.:     0.0814544 α      in ANC's #6, #1, #2, ...

........................................................................
.............................. CYCLE    7 ..............................
........................................................................

 iter      E             dE          RMSdq      gap      omega  full diag
   1    -32.0742318 -0.320742E+02  0.492E-02    3.62       0.0  T
   2    -32.0742323 -0.437945E-06  0.290E-02    3.62       1.0  T
   3    -32.0742322  0.113080E-06  0.431E-03    3.62       4.6  T
   4    -32.0742324 -0.179701E-06  0.964E-04    3.62      20.3  T
   5    -32.0742324 -0.466162E-08  0.613E-04    3.62      32.0  T
   6    -32.0742324 -0.503936E-08  0.202E-04    3.62      97.1  T
   7    -32.0742324  0.189075E-10  0.735E-05    3.62     266.9  T
   8    -32.0742324 -0.455600E-10  0.209E-05    3.62     936.2  T
   9    -32.0742324 -0.334666E-11  0.992E-06    3.62    1977.2  T
  10    -32.0742324 -0.110845E-11  0.488E-06    3.62    4019.5  T
     SCC iter.                  ...        0 min,  0.079 sec
     gradient                   ...        0 min,  0.002 sec
 * total energy  :   -31.5542810 Eh     change       -0.3306970E-04 Eh
   gradient norm :     0.0019797 Eh/α   predicted    -0.2105008E-04 ( -36.35%)
   displ. norm   :     0.0694790 α      lambda       -0.1816338E-04
   maximum displ.:     0.0419011 α      in ANC's #3, #1, #2, ...

........................................................................
.............................. CYCLE    8 ..............................
........................................................................

 iter      E             dE          RMSdq      gap      omega  full diag
   1    -32.0745139 -0.320745E+02  0.236E-02    3.62       0.0  T
   2    -32.0745139 -0.272127E-07  0.138E-02    3.62       1.4  T
   3    -32.0745139  0.663179E-08  0.100E-03    3.62      19.6  T
   4    -32.0745139 -0.133818E-07  0.360E-04    3.62      54.5  T
   5    -32.0745139 -0.155815E-08  0.156E-04    3.62     125.5  T
   6    -32.0745139 -0.174872E-09  0.753E-05    3.62     260.5  T
   7    -32.0745139 -0.252172E-10  0.166E-05    3.62    1183.4  T
   8    -32.0745139 -0.127898E-11  0.660E-06    3.62    2972.4  T
   9    -32.0745139 -0.483169E-12  0.320E-06    3.62    6137.0  T
     SCC iter.                  ...        0 min,  0.074 sec
     gradient                   ...        0 min,  0.002 sec
 * total energy  :   -31.5543057 Eh     change       -0.2472501E-04 Eh
   gradient norm :     0.0014476 Eh/α   predicted    -0.9105066E-05 ( -63.17%)
   displ. norm   :     0.1855565 α      lambda       -0.4668173E-04
   maximum displ.:     0.1077796 α      in ANC's #3, #1, #2, ...

........................................................................
.............................. CYCLE    9 ..............................
........................................................................

 iter      E             dE          RMSdq      gap      omega  full diag
   1    -32.0745001 -0.320745E+02  0.653E-02    3.62       0.0  T
   2    -32.0745002 -0.163688E-06  0.382E-02    3.62       1.0  T
   3    -32.0745002  0.168983E-07  0.207E-03    3.62       9.5  T
   4    -32.0745003 -0.587680E-07  0.103E-03    3.62      19.0  T
   5    -32.0745003 -0.162005E-07  0.469E-04    3.62      41.8  T
   6    -32.0745003 -0.757375E-09  0.151E-04    3.62     129.7  T
   7    -32.0745003 -0.803055E-10  0.446E-05    3.62     439.7  T
   8    -32.0745003 -0.362164E-10  0.172E-05    3.62    1143.0  T
   9    -32.0745003 -0.289191E-11  0.757E-06    3.62    2590.7  T
  10    -32.0745003 -0.397904E-12  0.266E-06    3.62    7370.3  T
     SCC iter.                  ...        0 min,  0.075 sec
     gradient                   ...        0 min,  0.002 sec
 * total energy  :   -31.5543645 Eh     change       -0.5883039E-04 Eh
   gradient norm :     0.0015053 Eh/α   predicted    -0.2369870E-04 ( -59.72%)
   displ. norm   :     0.3438912 α      lambda       -0.6681214E-04
   maximum displ.:     0.1991615 α      in ANC's #3, #1, #2, ...

........................................................................
.............................. CYCLE   10 ..............................
........................................................................

 iter      E             dE          RMSdq      gap      omega  full diag
   1    -32.0737040 -0.320737E+02  0.120E-01    3.62       0.0  T
   2    -32.0737044 -0.410582E-06  0.705E-02    3.62       1.0  T
   3    -32.0737045 -0.569833E-07  0.319E-03    3.63       6.1  T
   4    -32.0737045 -0.827514E-07  0.155E-03    3.62      12.6  T
   5    -32.0737046 -0.275288E-07  0.669E-04    3.62      29.3  T
   6    -32.0737046 -0.294686E-08  0.253E-04    3.62      77.6  T
   7    -32.0737046 -0.441005E-09  0.653E-05    3.62     300.3  T
   8    -32.0737046 -0.684821E-10  0.250E-05    3.62     785.5  T
   9    -32.0737046 -0.357403E-11  0.995E-06    3.62    1971.4  T
  10    -32.0737046 -0.120082E-11  0.295E-06    3.62    6653.4  T
     SCC iter.                  ...        0 min,  0.075 sec
     gradient                   ...        0 min,  0.002 sec
 * total energy  :   -31.5544518 Eh     change       -0.8729157E-04 Eh
   gradient norm :     0.0033450 Eh/α   predicted    -0.3516265E-04 ( -59.72%)
   displ. norm   :     0.3409227 α      lambda       -0.9555807E-04
   maximum displ.:     0.1988482 α      in ANC's #3, #1, #2, ...

........................................................................
.............................. CYCLE   11 ..............................
........................................................................

 iter      E             dE          RMSdq      gap      omega  full diag
   1    -32.0727346 -0.320727E+02  0.120E-01    3.63       0.0  T
   2    -32.0727351 -0.462868E-06  0.701E-02    3.63       1.0  T
   3    -32.0727352 -0.945353E-07  0.328E-03    3.63       6.0  T
   4    -32.0727352 -0.428945E-07  0.147E-03    3.63      13.3  T
   5    -32.0727352 -0.235246E-07  0.692E-04    3.63      28.3  T
   6    -32.0727353 -0.467823E-08  0.270E-04    3.63      72.7  T
   7    -32.0727353 -0.455067E-09  0.686E-05    3.63     286.0  T
   8    -32.0727353 -0.877804E-10  0.252E-05    3.63     779.3  T
   9    -32.0727353 -0.134293E-11  0.993E-06    3.63    1975.6  T
  10    -32.0727353 -0.923706E-12  0.240E-06    3.63    8185.4  T
     SCC iter.                  ...        0 min,  0.075 sec
     gradient                   ...        0 min,  0.002 sec
 * total energy  :   -31.5545377 Eh     change       -0.8589309E-04 Eh
   gradient norm :     0.0045519 Eh/α   predicted    -0.5333650E-04 ( -37.90%)
   displ. norm   :     0.5595736 α      lambda       -0.1628783E-03
   maximum displ.:     0.3271124 α      in ANC's #3, #1, #2, ...

........................................................................
.............................. CYCLE   12 ..............................
........................................................................

 iter      E             dE          RMSdq      gap      omega  full diag
   1    -32.0700451 -0.320700E+02  0.198E-01    3.63       0.0  T
   2    -32.0700465 -0.141578E-05  0.116E-01    3.63       1.0  T
   3    -32.0700467 -0.247008E-06  0.649E-03    3.63       3.0  T
   4    -32.0700469 -0.178752E-06  0.246E-03    3.63       8.0  T
   5    -32.0700469 -0.210086E-07  0.129E-03    3.63      15.2  T
   6    -32.0700470 -0.180650E-07  0.519E-04    3.63      37.8  T
   7    -32.0700470 -0.172142E-08  0.122E-04    3.63     161.0  T
   8    -32.0700470 -0.237272E-09  0.439E-05    3.63     446.3  T
   9    -32.0700470 -0.571276E-11  0.204E-05    3.63     960.8  T
  10    -32.0700470 -0.326139E-11  0.478E-06    3.63    4099.4  T
  11    -32.0700470 -0.170530E-12  0.219E-06    3.63    8948.5  T
     SCC iter.                  ...        0 min,  0.075 sec
     gradient                   ...        0 min,  0.002 sec
 * total energy  :   -31.5546542 Eh     change       -0.1164897E-03 Eh
   gradient norm :     0.0071118 Eh/α   predicted    -0.1069413E-03 (  -8.20%)
   displ. norm   :     0.3292010 α      lambda       -0.1493707E-03
   maximum displ.:     0.1930410 α      in ANC's #3, #1, #2, ...

........................................................................
.............................. CYCLE   13 ..............................
........................................................................

 iter      E             dE          RMSdq      gap      omega  full diag
   1    -32.0707074 -0.320707E+02  0.117E-01    3.63       0.0  T
   2    -32.0707079 -0.529688E-06  0.683E-02    3.63       1.0  T
   3    -32.0707080 -0.766688E-07  0.324E-03    3.63       6.1  T
   4    -32.0707080 -0.424793E-07  0.177E-03    3.63      11.1  T
   5    -32.0707081 -0.435401E-07  0.621E-04    3.63      31.6  T
   6    -32.0707081 -0.696659E-09  0.227E-04    3.63      86.3  T
   7    -32.0707081 -0.254900E-09  0.668E-05    3.63     293.8  T
   8    -32.0707081 -0.536602E-10  0.204E-05    3.63     961.7  T
   9    -32.0707081 -0.390799E-12  0.809E-06    3.63    2423.5  T
  10    -32.0707081 -0.127898E-11  0.310E-06    3.63    6321.9  T
     SCC iter.                  ...        0 min,  0.074 sec
     gradient                   ...        0 min,  0.002 sec
 * total energy  :   -31.5547796 Eh     change       -0.1253899E-03 Eh
   gradient norm :     0.0062586 Eh/α   predicted    -0.8278145E-04 ( -33.98%)
   displ. norm   :     0.3534424 α      lambda       -0.3389333E-03
   maximum displ.:     0.2057745 α      in ANC's #3, #1, #2, ...

........................................................................
.............................. CYCLE   14 ..............................
........................................................................

 iter      E             dE          RMSdq      gap      omega  full diag
   1    -32.0773745 -0.320774E+02  0.126E-01    3.65       0.0  T
   2    -32.0773758 -0.134243E-05  0.738E-02    3.64       1.0  T
   3    -32.0773753  0.540801E-06  0.790E-03    3.65       2.5  T
   4    -32.0773761 -0.848942E-06  0.250E-03    3.65       7.8  T
   5    -32.0773762 -0.388726E-07  0.129E-03    3.65      15.2  T
   6    -32.0773762 -0.713246E-08  0.511E-04    3.65      38.4  T
   7    -32.0773762 -0.302584E-08  0.174E-04    3.65     113.0  T
   8    -32.0773762 -0.109210E-09  0.514E-05    3.65     381.5  T
   9    -32.0773762 -0.184386E-10  0.207E-05    3.65     946.7  T
  10    -32.0773762 -0.372324E-11  0.508E-06    3.65    3862.4  T
  11    -32.0773762 -0.163425E-12  0.168E-06    3.65   11680.2  T
     SCC iter.                  ...        0 min,  0.075 sec
     gradient                   ...        0 min,  0.002 sec
 * total energy  :   -31.5549856 Eh     change       -0.2060166E-03 Eh
   gradient norm :     0.0035948 Eh/α   predicted    -0.1906405E-03 (  -7.46%)
   displ. norm   :     0.7573010 α      lambda       -0.3368626E-03
   maximum displ.:     0.4560010 α      in ANC's #3, #1, #2, ...

........................................................................
.............................. CYCLE   15 ..............................
........................................................................

 iter      E             dE          RMSdq      gap      omega  full diag
   1    -32.0709940 -0.320710E+02  0.268E-01    3.64       0.0  T
   2    -32.0710007 -0.663997E-05  0.156E-01    3.65       1.0  T
   3    -32.0710003  0.360333E-06  0.203E-02    3.64       1.0  T
   4    -32.0710018 -0.154347E-05  0.482E-03    3.65       4.1  T
   5    -32.0710018  0.187948E-07  0.296E-03    3.65       6.6  T
   6    -32.0710019 -0.582273E-07  0.115E-03    3.65      17.1  T
   7    -32.0710019 -0.386605E-08  0.238E-04    3.65      82.5  T
   8    -32.0710019 -0.646530E-09  0.740E-05    3.65     264.9  T
   9    -32.0710019 -0.148503E-10  0.423E-05    3.65     463.3  T
  10    -32.0710019 -0.103739E-10  0.168E-05    3.65    1165.5  T
  11    -32.0710019 -0.201794E-11  0.456E-06    3.65    4303.0  T
  12    -32.0710019 -0.639488E-13  0.160E-06    3.65   12225.8  T
     SCC iter.                  ...        0 min,  0.075 sec
     gradient                   ...        0 min,  0.002 sec
 * total energy  :   -31.5551669 Eh     change       -0.1813534E-03 Eh
   gradient norm :     0.0082134 Eh/α   predicted    -0.2650354E-03 (  46.14%)
   displ. norm   :     0.0965271 α      lambda       -0.1870262E-03
   maximum displ.:     0.0425119 α      in ANC's #2, #1, #3, ...

........................................................................
.............................. CYCLE   16 ..............................
........................................................................

 iter      E             dE          RMSdq      gap      omega  full diag
   1    -32.0731722 -0.320732E+02  0.409E-02    3.65       0.0  T
   2    -32.0731728 -0.595089E-06  0.219E-02    3.64       1.0  T
   3    -32.0731727  0.109317E-06  0.938E-03    3.65       2.1  T
   4    -32.0731729 -0.207881E-06  0.176E-03    3.65      11.2  T
   5    -32.0731729  0.608970E-08  0.134E-03    3.65      14.6  T
   6    -32.0731729 -0.202810E-07  0.495E-04    3.65      39.6  T
   7    -32.0731729 -0.534428E-09  0.106E-04    3.65     184.6  T
   8    -32.0731729 -0.596856E-11  0.308E-05    3.65     635.9  T
   9    -32.0731729 -0.109779E-10  0.157E-05    3.65    1248.9  T
  10    -32.0731729 -0.781597E-12  0.440E-06    3.65    4456.1  T
  11    -32.0731729 -0.177636E-12  0.172E-06    3.65   11395.1  T
     SCC iter.                  ...        0 min,  0.075 sec
     gradient                   ...        0 min,  0.002 sec
 * total energy  :   -31.5553080 Eh     change       -0.1411026E-03 Eh
   gradient norm :     0.0045833 Eh/α   predicted    -0.9438819E-04 ( -33.11%)
   displ. norm   :     0.4794662 α      lambda       -0.2775113E-03
   maximum displ.:     0.2758244 α      in ANC's #3, #1, #2, ...

........................................................................
.............................. CYCLE   17 ..............................
........................................................................

 iter      E             dE          RMSdq      gap      omega  full diag
   1    -32.0741929 -0.320742E+02  0.155E-01    3.65       0.0  T
   2    -32.0741942 -0.128763E-05  0.912E-02    3.65       1.0  T
   3    -32.0741940  0.173039E-06  0.706E-03    3.65       2.8  T
   4    -32.0741945 -0.480588E-06  0.229E-03    3.65       8.6  T
   5    -32.0741945 -0.271613E-07  0.129E-03    3.65      15.2  T
   6    -32.0741945 -0.193139E-07  0.532E-04    3.65      36.9  T
   7    -32.0741945 -0.229250E-09  0.104E-04    3.65     187.9  T
   8    -32.0741945 -0.162260E-09  0.456E-05    3.65     430.0  T
   9    -32.0741945 -0.144453E-10  0.169E-05    3.65    1162.8  T
  10    -32.0741945 -0.400746E-11  0.751E-06    3.65    2613.1  T
  11    -32.0741945 -0.291323E-12  0.216E-06    3.65    9067.4  T
     SCC iter.                  ...        0 min,  0.075 sec
     gradient                   ...        0 min,  0.002 sec
 * total energy  :   -31.5555206 Eh     change       -0.2125687E-03 Eh
   gradient norm :     0.0048845 Eh/α   predicted    -0.1706516E-03 ( -19.72%)
   displ. norm   :     0.4312769 α      lambda       -0.2129600E-03
   maximum displ.:     0.2525699 α      in ANC's #3, #1, #2, ...

........................................................................
.............................. CYCLE   18 ..............................
........................................................................

 iter      E             dE          RMSdq      gap      omega  full diag
   1    -32.0752251 -0.320752E+02  0.133E-01    3.65       0.0  T
   2    -32.0752263 -0.121794E-05  0.783E-02    3.66       1.0  T
   3    -32.0752261  0.180271E-06  0.668E-03    3.66       2.9  T
   4    -32.0752265 -0.409240E-06  0.204E-03    3.66       9.6  T
   5    -32.0752266 -0.340588E-07  0.103E-03    3.66      19.0  T
   6    -32.0752266 -0.155246E-07  0.501E-04    3.66      39.1  T
   7    -32.0752266 -0.464901E-09  0.102E-04    3.66     192.5  T
   8    -32.0752266 -0.130754E-09  0.353E-05    3.66     554.9  T
   9    -32.0752266 -0.934364E-11  0.160E-05    3.66    1225.6  T
  10    -32.0752266 -0.287770E-11  0.600E-06    3.66    3266.6  T
  11    -32.0752266 -0.326850E-12  0.244E-06    3.66    8036.5  T
     SCC iter.                  ...        0 min,  0.089 sec
     gradient                   ...        0 min,  0.002 sec
 * total energy  :   -31.5556705 Eh     change       -0.1498399E-03 Eh
   gradient norm :     0.0043944 Eh/α   predicted    -0.1262834E-03 ( -15.72%)
   displ. norm   :     0.3432598 α      lambda       -0.1257047E-03
   maximum displ.:     0.1939529 α      in ANC's #3, #1, #2, ...

........................................................................
.............................. CYCLE   19 ..............................
........................................................................

 iter      E             dE          RMSdq      gap      omega  full diag
   1    -32.0747134 -0.320747E+02  0.110E-01    3.65       0.0  T
   2    -32.0747142 -0.808399E-06  0.642E-02    3.66       1.0  T
   3    -32.0747143 -0.102532E-06  0.370E-03    3.66       5.3  T
   4    -32.0747143 -0.220415E-07  0.160E-03    3.66      12.3  T
   5    -32.0747143 -0.338085E-07  0.546E-04    3.66      35.9  T
   6    -32.0747143 -0.104671E-08  0.282E-04    3.66      69.5  T
   7    -32.0747143 -0.381000E-09  0.994E-05    3.66     197.2  T
   8    -32.0747143 -0.151474E-09  0.283E-05    3.66     694.0  T
   9    -32.0747143 -0.466827E-11  0.129E-05    3.66    1525.5  T
  10    -32.0747143 -0.724754E-12  0.261E-06    3.66    7513.1  T
  11    -32.0747143 -0.426326E-13  0.107E-06    3.66   18332.6  T
     SCC iter.                  ...        0 min,  0.090 sec
     gradient                   ...        0 min,  0.002 sec
 * total energy  :   -31.5557496 Eh     change       -0.7917647E-04 Eh
   gradient norm :     0.0034260 Eh/α   predicted    -0.7026043E-04 ( -11.26%)
   displ. norm   :     0.1456446 α      lambda       -0.9863458E-04
   maximum displ.:     0.0804434 α      in ANC's #4, #5, #3, ...

........................................................................
.............................. CYCLE   20 ..............................
........................................................................

 iter      E             dE          RMSdq      gap      omega  full diag
   1    -32.0801553 -0.320802E+02  0.508E-02    3.67       0.0  T
   2    -32.0801566 -0.124535E-05  0.273E-02    3.67       1.0  T
   3    -32.0801565  0.100600E-06  0.123E-02    3.67       1.6  T
   4    -32.0801568 -0.316966E-06  0.266E-03    3.67       7.4  T
   5    -32.0801568  0.630666E-08  0.140E-03    3.67      14.0  T
   6    -32.0801568 -0.121215E-07  0.515E-04    3.67      38.1  T
   7    -32.0801568 -0.725542E-09  0.119E-04    3.67     165.0  T
   8    -32.0801568 -0.100066E-09  0.407E-05    3.67     481.7  T
   9    -32.0801568 -0.156035E-10  0.161E-05    3.67    1215.6  T
  10    -32.0801568 -0.795808E-12  0.632E-06    3.67    3101.9  T
  11    -32.0801568 -0.262901E-12  0.163E-06    3.67   11995.3  T
     SCC iter.                  ...        0 min,  0.090 sec
     gradient                   ...        0 min,  0.002 sec
 * total energy  :   -31.5557284 Eh     change        0.2122169E-04 Eh
   gradient norm :     0.0059594 Eh/α   predicted    -0.5036448E-04 (-337.33%)
   displ. norm   :     0.2956493 α      lambda       -0.1687091E-03
   maximum displ.:     0.1760497 α      in ANC's #3, #1, #2, ...
 * RMSD in coord.:     0.9521539 α      energy gain  -0.8326893E-02 Eh

generating ANC from model Hessian ...
Using Lindh-Hessian (1995)
 Shifting diagonal of input Hessian by   9.151152978742427E-003
 Lowest  eigenvalues of input Hessian
    0.000000    0.000000    0.000000    0.000000    0.000000    0.000000
    0.010000    0.010079    0.010688    0.011068    0.011444    0.012472
    0.015079    0.016841    0.018367    0.018458    0.021995    0.024098
 Highest eigenvalues
    1.360975    1.552606    1.570707    1.880075    1.986444    2.001488
 

........................................................................
.............................. CYCLE   21 ..............................
........................................................................

 iter      E             dE          RMSdq      gap      omega  full diag
   1    -32.0747332 -0.320747E+02  0.109E-01    3.66       0.0  T
   2    -32.0747345 -0.123684E-05  0.628E-02    3.66       1.0  T
   3    -32.0747345  0.204305E-07  0.837E-03    3.66       2.3  T
   4    -32.0747347 -0.254976E-06  0.229E-03    3.66       8.6  T
   5    -32.0747347  0.492154E-08  0.148E-03    3.66      13.3  T
   6    -32.0747347 -0.155299E-07  0.511E-04    3.66      38.4  T
   7    -32.0747347 -0.123914E-08  0.153E-04    3.66     127.9  T
   8    -32.0747347 -0.186283E-09  0.393E-05    3.66     499.6  T
   9    -32.0747347 -0.562750E-11  0.168E-05    3.66    1170.8  T
  10    -32.0747347 -0.859757E-12  0.571E-06    3.66    3434.3  T
  11    -32.0747347 -0.923706E-13  0.202E-06    3.66    9694.5  T
     SCC iter.                  ...        0 min,  0.086 sec
     gradient                   ...        0 min,  0.003 sec
 * total energy  :   -31.5557868 Eh     change       -0.5835648E-04 Eh
   gradient norm :     0.0059615 Eh/α   predicted     0.0000000E+00 (-100.00%)
   displ. norm   :     0.0460694 α      lambda       -0.8722123E-04
   maximum displ.:     0.0248208 α      in ANC's #2, #7, #6, ...

........................................................................
.............................. CYCLE   22 ..............................
........................................................................

 iter      E             dE          RMSdq      gap      omega  full diag
   1    -32.0760935 -0.320761E+02  0.273E-02    3.66       0.0  T
   2    -32.0760937 -0.270698E-06  0.156E-02    3.66       1.3  T
   3    -32.0760937  0.419081E-07  0.271E-03    3.66       7.2  T
   4    -32.0760938 -0.703559E-07  0.914E-04    3.66      21.5  T
   5    -32.0760938 -0.110155E-07  0.454E-04    3.66      43.2  T
   6    -32.0760938 -0.711893E-09  0.171E-04    3.66     114.7  T
   7    -32.0760938 -0.221171E-09  0.697E-05    3.66     281.3  T
   8    -32.0760938  0.162004E-11  0.285E-05    3.66     687.4  T
   9    -32.0760938 -0.132587E-10  0.114E-05    3.66    1722.9  T
  10    -32.0760938 -0.532907E-12  0.413E-06    3.66    4749.4  T
  11    -32.0760938 -0.710543E-13  0.122E-06    3.66   16052.1  T
     SCC iter.                  ...        0 min,  0.085 sec
     gradient                   ...        0 min,  0.002 sec
 * total energy  :   -31.5558470 Eh     change       -0.6026083E-04 Eh
   gradient norm :     0.0019355 Eh/α   predicted    -0.4375182E-04 ( -27.40%)
   displ. norm   :     0.1057842 α      lambda       -0.4473380E-04
   maximum displ.:     0.0620576 α      in ANC's #2, #6, #7, ...

........................................................................
.............................. CYCLE   23 ..............................
........................................................................

 iter      E             dE          RMSdq      gap      omega  full diag
   1    -32.0771207 -0.320771E+02  0.395E-02    3.66       0.0  T
   2    -32.0771209 -0.231452E-06  0.227E-02    3.66       1.0  T
   3    -32.0771208  0.126790E-06  0.366E-03    3.66       5.4  T
   4    -32.0771210 -0.155952E-06  0.119E-03    3.66      16.5  T
   5    -32.0771210 -0.233599E-07  0.542E-04    3.66      36.2  T
   6    -32.0771210 -0.230805E-08  0.180E-04    3.66     109.2  T
   7    -32.0771210 -0.402594E-10  0.589E-05    3.66     333.0  T
   8    -32.0771210 -0.145022E-10  0.279E-05    3.66     702.2  T
   9    -32.0771210 -0.102247E-10  0.120E-05    3.66    1641.1  T
  10    -32.0771210 -0.454747E-12  0.241E-06    3.66    8127.0  T
  11    -32.0771210  0.142109E-13  0.907E-07    3.66   21627.7  T
     SCC iter.                  ...        0 min,  0.076 sec
     gradient                   ...        0 min,  0.002 sec
 * total energy  :   -31.5558868 Eh     change       -0.3978562E-04 Eh
   gradient norm :     0.0027422 Eh/α   predicted    -0.2248443E-04 ( -43.49%)
   displ. norm   :     0.0699472 α      lambda       -0.2795011E-04
   maximum displ.:     0.0401407 α      in ANC's #2, #6, #9, ...

........................................................................
.............................. CYCLE   24 ..............................
........................................................................

 iter      E             dE          RMSdq      gap      omega  full diag
   1    -32.0768903 -0.320769E+02  0.220E-02    3.67       0.0  T
   2    -32.0768903 -0.424087E-07  0.129E-02    3.67       1.5  T
   3    -32.0768903  0.132069E-07  0.118E-03    3.67      16.6  T
   4    -32.0768903 -0.136485E-07  0.611E-04    3.67      32.1  T
   5    -32.0768904 -0.820709E-08  0.186E-04    3.67     105.4  T
   6    -32.0768904 -0.143544E-09  0.749E-05    3.67     262.0  T
   7    -32.0768904 -0.355271E-12  0.250E-05    3.67     785.5  T
   8    -32.0768904 -0.708411E-11  0.582E-06    3.67    3371.6  T
   9    -32.0768904 -0.149214E-12  0.238E-06    3.67    8237.8  T
     SCC iter.                  ...        0 min,  0.075 sec
     gradient                   ...        0 min,  0.002 sec
 * total energy  :   -31.5559117 Eh     change       -0.2493373E-04 Eh
   gradient norm :     0.0025229 Eh/α   predicted    -0.1404374E-04 ( -43.68%)
   displ. norm   :     0.2026369 α      lambda       -0.6989146E-04
   maximum displ.:     0.1113209 α      in ANC's #2, #6, #4, ...

........................................................................
.............................. CYCLE   25 ..............................
........................................................................

 iter      E             dE          RMSdq      gap      omega  full diag
   1    -32.0758240 -0.320758E+02  0.597E-02    3.67       0.0  T
   2    -32.0758243 -0.342355E-06  0.349E-02    3.67       1.0  T
   3    -32.0758243  0.615701E-08  0.284E-03    3.67       6.9  T
   4    -32.0758244 -0.511902E-07  0.110E-03    3.67      17.8  T
   5    -32.0758244 -0.104617E-07  0.595E-04    3.67      33.0  T
   6    -32.0758244 -0.379814E-08  0.216E-04    3.67      90.6  T
   7    -32.0758244 -0.151424E-09  0.723E-05    3.67     271.1  T
   8    -32.0758244 -0.464411E-10  0.209E-05    3.67     937.3  T
   9    -32.0758244 -0.168399E-11  0.100E-05    3.67    1958.5  T
  10    -32.0758244 -0.611067E-12  0.302E-06    3.67    6490.2  T
  11    -32.0758244 -0.994760E-13  0.898E-07    3.67   21844.2  T
     SCC iter.                  ...        0 min,  0.075 sec
     gradient                   ...        0 min,  0.002 sec
 * total energy  :   -31.5559546 Eh     change       -0.4287641E-04 Eh
   gradient norm :     0.0022128 Eh/α   predicted    -0.3638253E-04 ( -15.15%)
   displ. norm   :     0.0666929 α      lambda       -0.1532483E-04
   maximum displ.:     0.0414397 α      in ANC's #2, #4, #6, ...

........................................................................
.............................. CYCLE   26 ..............................
........................................................................

 iter      E             dE          RMSdq      gap      omega  full diag
   1    -32.0759236 -0.320759E+02  0.184E-02    3.67       0.0  T
   2    -32.0759236 -0.222020E-07  0.109E-02    3.67       1.8  T
   3    -32.0759236  0.187435E-08  0.794E-04    3.67      24.7  T
   4    -32.0759236 -0.649478E-08  0.307E-04    3.67      64.0  T
   5    -32.0759236 -0.685105E-09  0.170E-04    3.67     115.2  T
   6    -32.0759236 -0.299934E-09  0.677E-05    3.67     289.8  T
   7    -32.0759236 -0.636646E-11  0.206E-05    3.67     954.2  T
   8    -32.0759236 -0.626699E-11  0.650E-06    3.67    3018.1  T
   9    -32.0759236 -0.525802E-12  0.207E-06    3.67    9485.0  T
     SCC iter.                  ...        0 min,  0.075 sec
     gradient                   ...        0 min,  0.002 sec
 * total energy  :   -31.5559670 Eh     change       -0.1234979E-04 Eh
   gradient norm :     0.0016593 Eh/α   predicted    -0.7701882E-05 ( -37.64%)
   displ. norm   :     0.1294156 α      lambda       -0.2232904E-04
   maximum displ.:     0.0817282 α      in ANC's #2, #4, #3, ...

........................................................................
.............................. CYCLE   27 ..............................
........................................................................

 iter      E             dE          RMSdq      gap      omega  full diag
   1    -32.0768135 -0.320768E+02  0.336E-02    3.67       0.0  T
   2    -32.0768138 -0.241472E-06  0.197E-02    3.67       1.0  T
   3    -32.0768138  0.118105E-07  0.254E-03    3.67       7.7  T
   4    -32.0768138 -0.327373E-07  0.885E-04    3.67      22.2  T
   5    -32.0768138 -0.623226E-08  0.503E-04    3.67      39.0  T
   6    -32.0768138 -0.203640E-08  0.160E-04    3.67     122.5  T
   7    -32.0768138 -0.219345E-10  0.508E-05    3.67     386.1  T
   8    -32.0768138 -0.237321E-10  0.153E-05    3.67    1282.3  T
   9    -32.0768138 -0.123634E-11  0.949E-06    3.67    2066.1  T
  10    -32.0768138 -0.916600E-12  0.157E-06    3.67   12498.9  T
     SCC iter.                  ...        0 min,  0.075 sec
     gradient                   ...        0 min,  0.002 sec
 * total energy  :   -31.5559858 Eh     change       -0.1880998E-04 Eh
   gradient norm :     0.0017701 Eh/α   predicted    -0.1125146E-04 ( -40.18%)
   displ. norm   :     0.1150324 α      lambda       -0.1011281E-04
   maximum displ.:     0.0670424 α      in ANC's #2, #4, #6, ...

........................................................................
.............................. CYCLE   28 ..............................
........................................................................

 iter      E             dE          RMSdq      gap      omega  full diag
   1    -32.0762958 -0.320763E+02  0.302E-02    3.67       0.0  T
   2    -32.0762959 -0.103528E-06  0.178E-02    3.67       1.1  T
   3    -32.0762959 -0.567844E-08  0.156E-03    3.67      12.6  T
   4    -32.0762960 -0.930505E-08  0.523E-04    3.67      37.5  T
   5    -32.0762960  0.206015E-09  0.316E-04    3.67      62.1  T
   6    -32.0762960 -0.104981E-08  0.121E-04    3.67     161.9  T
   7    -32.0762960 -0.134719E-10  0.443E-05    3.67     442.8  T
   8    -32.0762960 -0.269651E-10  0.125E-05    3.67    1568.5  T
   9    -32.0762960 -0.234479E-12  0.669E-06    3.67    2929.7  T
  10    -32.0762960 -0.298428E-12  0.205E-06    3.67    9581.3  T
     SCC iter.                  ...        0 min,  0.075 sec
     gradient                   ...        0 min,  0.002 sec
 * total energy  :   -31.5559955 Eh     change       -0.9715639E-05 Eh
   gradient norm :     0.0014022 Eh/α   predicted    -0.5087672E-05 ( -47.63%)
   displ. norm   :     0.0707387 α      lambda       -0.9335530E-05
   maximum displ.:     0.0437460 α      in ANC's #4, #2, #5, ...

........................................................................
.............................. CYCLE   29 ..............................
........................................................................

 iter      E             dE          RMSdq      gap      omega  full diag
   1    -32.0766592 -0.320767E+02  0.171E-02    3.67       0.0  T
   2    -32.0766592 -0.374943E-07  0.101E-02    3.67       1.9  T
   3    -32.0766592  0.226217E-07  0.127E-03    3.67      15.5  T
   4    -32.0766592 -0.268493E-07  0.551E-04    3.67      35.6  T
   5    -32.0766592 -0.507100E-08  0.257E-04    3.67      76.3  T
   6    -32.0766592 -0.390379E-09  0.809E-05    3.67     242.4  T
   7    -32.0766592 -0.425615E-10  0.273E-05    3.67     717.9  T
   8    -32.0766592 -0.280664E-11  0.114E-05    3.67    1724.8  T
   9    -32.0766592 -0.131450E-11  0.498E-06    3.67    3935.8  T
  10    -32.0766592 -0.170530E-12  0.113E-06    3.67   17354.8  T
     SCC iter.                  ...        0 min,  0.075 sec
     gradient                   ...        0 min,  0.002 sec
 * total energy  :   -31.5560058 Eh     change       -0.1026862E-04 Eh
   gradient norm :     0.0007269 Eh/α   predicted    -0.4681834E-05 ( -54.41%)
   displ. norm   :     0.0963792 α      lambda       -0.7462542E-05
   maximum displ.:     0.0627986 α      in ANC's #4, #2, #5, ...

........................................................................
.............................. CYCLE   30 ..............................
........................................................................

 iter      E             dE          RMSdq      gap      omega  full diag
   1    -32.0766931 -0.320767E+02  0.243E-02    3.67       0.0  T
   2    -32.0766932 -0.741814E-07  0.142E-02    3.67       1.4  T
   3    -32.0766931  0.696463E-08  0.157E-03    3.67      12.5  T
   4    -32.0766932 -0.136356E-07  0.738E-04    3.67      26.6  T
   5    -32.0766932 -0.733076E-08  0.288E-04    3.67      68.2  T
   6    -32.0766932 -0.110889E-08  0.108E-04    3.67     181.5  T
   7    -32.0766932 -0.212168E-10  0.293E-05    3.67     668.8  T
   8    -32.0766932 -0.419220E-12  0.140E-05    3.67    1404.1  T
   9    -32.0766932 -0.257216E-11  0.378E-06    3.67    5186.9  T
  10    -32.0766932 -0.149214E-12  0.161E-06    3.67   12144.1  T
     SCC iter.                  ...        0 min,  0.075 sec
     gradient                   ...        0 min,  0.002 sec
 * total energy  :   -31.5560135 Eh     change       -0.7689000E-05 Eh
   gradient norm :     0.0006954 Eh/α   predicted    -0.3747198E-05 ( -51.27%)
   displ. norm   :     0.0623016 α      lambda       -0.3602470E-05
   maximum displ.:     0.0425845 α      in ANC's #4, #2, #9, ...

........................................................................
.............................. CYCLE   31 ..............................
........................................................................

 iter      E             dE          RMSdq      gap      omega  full diag
   1    -32.0767179 -0.320767E+02  0.167E-02    3.67       0.0  T
   2    -32.0767180 -0.404559E-07  0.981E-03    3.67       2.0  T
   3    -32.0767180  0.258289E-09  0.113E-03    3.67      17.4  T
   4    -32.0767180 -0.543283E-08  0.459E-04    3.67      42.8  T
   5    -32.0767180 -0.198472E-08  0.203E-04    3.67      96.7  T
   6    -32.0767180 -0.660975E-09  0.801E-05    3.67     244.8  T
   7    -32.0767180 -0.108784E-10  0.267E-05    3.67     734.4  T
   8    -32.0767180 -0.303402E-11  0.687E-06    3.67    2856.2  T
   9    -32.0767180 -0.582645E-12  0.262E-06    3.67    7494.8  T
     SCC iter.                  ...        0 min,  0.074 sec
     gradient                   ...        0 min,  0.002 sec
 * total energy  :   -31.5560169 Eh     change       -0.3412087E-05 Eh
   gradient norm :     0.0005679 Eh/α   predicted    -0.1805074E-05 ( -47.10%)
   displ. norm   :     0.0391347 α      lambda       -0.1862108E-05
   maximum displ.:     0.0266781 α      in ANC's #4, #2, #1, ...

........................................................................
.............................. CYCLE   32 ..............................
........................................................................

 iter      E             dE          RMSdq      gap      omega  full diag
   1    -32.0767353 -0.320767E+02  0.122E-02    3.67       0.0  T
   2    -32.0767353 -0.226941E-07  0.696E-03    3.67       2.8  T
   3    -32.0767353  0.964128E-09  0.920E-04    3.67      21.3  T
   4    -32.0767353 -0.144826E-08  0.473E-04    3.67      41.5  T
   5    -32.0767353 -0.397699E-08  0.984E-05    3.67     199.3  T
   6    -32.0767353 -0.619593E-10  0.468E-05    3.67     418.8  T
   7    -32.0767353 -0.390088E-11  0.157E-05    3.67    1246.1  T
   8    -32.0767353 -0.322586E-11  0.522E-06    3.67    3755.1  T
   9    -32.0767353 -0.511591E-12  0.155E-06    3.67   12679.5  T
     SCC iter.                  ...        0 min,  0.074 sec
     gradient                   ...        0 min,  0.002 sec
 * total energy  :   -31.5560187 Eh     change       -0.1863706E-05 Eh
   gradient norm :     0.0002652 Eh/α   predicted    -0.9322657E-06 ( -49.98%)
   displ. norm   :     0.0291771 α      lambda       -0.9905220E-06
   maximum displ.:     0.0190919 α      in ANC's #4, #2, #1, ...

........................................................................
.............................. CYCLE   33 ..............................
........................................................................

 iter      E             dE          RMSdq      gap      omega  full diag
   1    -32.0767029 -0.320767E+02  0.931E-03    3.67       0.0  T
   2    -32.0767029 -0.522396E-08  0.541E-03    3.67       3.6  T
   3    -32.0767029  0.153364E-09  0.380E-04    3.67      51.6  T
   4    -32.0767029 -0.770925E-09  0.209E-04    3.67      93.8  T
   5    -32.0767029 -0.760274E-09  0.659E-05    3.67     297.7  T
   6    -32.0767029 -0.972733E-11  0.278E-05    3.67     706.2  T
   7    -32.0767029 -0.547828E-11  0.814E-06    3.67    2409.8  T
   8    -32.0767029 -0.490274E-12  0.314E-06    3.67    6251.8  T
     SCC iter.                  ...        0 min,  0.074 sec
     gradient                   ...        0 min,  0.002 sec
 * total energy  :   -31.5560198 Eh     change       -0.1077604E-05 Eh
   gradient norm :     0.0002359 Eh/α   predicted    -0.4967634E-06 ( -53.90%)
   displ. norm   :     0.0327834 α      lambda       -0.8845608E-06
   maximum displ.:     0.0195009 α      in ANC's #4, #2, #1, ...

........................................................................
.............................. CYCLE   34 ..............................
........................................................................

 iter      E             dE          RMSdq      gap      omega  full diag
   1    -32.0766842 -0.320767E+02  0.109E-02    3.67       0.0  T
   2    -32.0766842 -0.833752E-08  0.638E-03    3.67       3.1  T
   3    -32.0766842 -0.267555E-09  0.520E-04    3.67      37.7  T
   4    -32.0766842 -0.116722E-08  0.206E-04    3.67      95.1  T
   5    -32.0766842 -0.327908E-09  0.820E-05    3.67     239.0  T
   6    -32.0766842 -0.526512E-10  0.437E-05    3.67     449.0  T
   7    -32.0766842 -0.118092E-10  0.717E-06    3.67    2735.3  T
   8    -32.0766842 -0.468958E-12  0.337E-06    3.67    5822.0  T
     SCC iter.                  ...        0 min,  0.074 sec
     gradient                   ...        0 min,  0.002 sec
 * total energy  :   -31.5560207 Eh     change       -0.8621543E-06 Eh
   gradient norm :     0.0002253 Eh/α   predicted    -0.4433768E-06 ( -48.57%)
   displ. norm   :     0.0180508 α      lambda       -0.3668661E-06
   maximum displ.:     0.0110312 α      in ANC's #1, #2, #4, ...

........................................................................
.............................. CYCLE   35 ..............................
........................................................................

 iter      E             dE          RMSdq      gap      omega  full diag
   1    -32.0767123 -0.320767E+02  0.662E-03    3.67       0.0  T
   2    -32.0767123 -0.307490E-08  0.383E-03    3.67       5.1  T
   3    -32.0767123  0.969834E-09  0.354E-04    3.67      55.4  T
   4    -32.0767123 -0.711381E-09  0.189E-04    3.67     103.6  T
   5    -32.0767123 -0.994142E-09  0.393E-05    3.67     499.4  T
   6    -32.0767123 -0.201084E-11  0.196E-05    3.67     999.3  T
   7    -32.0767123 -0.447642E-12  0.592E-06    3.67    3315.1  T
   8    -32.0767123 -0.476064E-12  0.202E-06    3.67    9720.0  T
     SCC iter.                  ...        0 min,  0.074 sec
     gradient                   ...        0 min,  0.002 sec
 * total energy  :   -31.5560211 Eh     change       -0.4066040E-06 Eh
   gradient norm :     0.0001265 Eh/α   predicted    -0.1851019E-06 ( -54.48%)
   displ. norm   :     0.0180508 α      lambda        0.0000000E+00
   maximum displ.:     0.0110312 α      in ANC's #1, #2, #4, ...

........................................................................
.............................. CYCLE   36 ..............................
........................................................................

 iter      E             dE          RMSdq      gap      omega  full diag
   1    -32.0767361 -0.320767E+02  0.663E-03    3.67       0.0  T
   2    -32.0767361 -0.308231E-08  0.383E-03    3.67       5.1  T
   3    -32.0767361  0.954152E-09  0.353E-04    3.67      55.5  T
   4    -32.0767361 -0.694946E-09  0.189E-04    3.67     103.7  T
   5    -32.0767361 -0.992998E-09  0.393E-05    3.67     498.9  T
   6    -32.0767361 -0.202505E-11  0.196E-05    3.67     998.6  T
   7    -32.0767361 -0.504485E-12  0.596E-06    3.67    3291.0  T
   8    -32.0767361 -0.483169E-12  0.202E-06    3.67    9686.6  T
     SCC iter.                  ...        0 min,  0.075 sec
     gradient                   ...        0 min,  0.002 sec
 * total energy  :   -31.5560212 Eh     change       -0.1106778E-06 Eh
   gradient norm :     0.0001745 Eh/α   predicted    -0.3942621E-08 ( -96.44%)
   displ. norm   :     0.0058432 α      lambda       -0.2261976E-06
   maximum displ.:     0.0043510 α      in ANC's #1, #5, #4, ...

........................................................................
.............................. CYCLE   37 ..............................
........................................................................

 iter      E             dE          RMSdq      gap      omega  full diag
   1    -32.0767280 -0.320767E+02  0.272E-03    3.67       0.0  T
   2    -32.0767280 -0.103025E-08  0.158E-03    3.67      12.4  T
   3    -32.0767280  0.157051E-09  0.205E-04    3.67      95.6  T
   4    -32.0767280 -0.269793E-09  0.685E-05    3.67     286.1  T
   5    -32.0767280 -0.464908E-10  0.267E-05    3.67     735.1  T
   6    -32.0767280 -0.112763E-10  0.153E-05    3.67    1283.2  T
   7    -32.0767280 -0.888178E-12  0.283E-06    3.67    6920.2  T
   8    -32.0767280 -0.710543E-13  0.110E-06    3.67   17774.4  T
     SCC iter.                  ...        0 min,  0.074 sec
     gradient                   ...        0 min,  0.002 sec
 * total energy  :   -31.5560215 Eh     change       -0.2721762E-06 Eh
   gradient norm :     0.0001296 Eh/α   predicted    -0.1150833E-06 ( -57.72%)
   displ. norm   :     0.0106057 α      lambda       -0.3009294E-06
   maximum displ.:     0.0069590 α      in ANC's #1, #4, #5, ...

........................................................................
.............................. CYCLE   38 ..............................
........................................................................

 iter      E             dE          RMSdq      gap      omega  full diag
   1    -32.0767354 -0.320767E+02  0.363E-03    3.67       0.0  T
   2    -32.0767354 -0.113879E-08  0.213E-03    3.67       9.2  T
   3    -32.0767354  0.276650E-09  0.188E-04    3.67     104.3  T
   4    -32.0767354 -0.509708E-09  0.732E-05    3.67     267.8  T
   5    -32.0767354 -0.573195E-10  0.295E-05    3.67     665.0  T
   6    -32.0767354 -0.637357E-11  0.122E-05    3.67    1604.8  T
   7    -32.0767354 -0.994760E-12  0.411E-06    3.67    4769.5  T
   8    -32.0767354 -0.149214E-12  0.167E-06    3.67   11715.2  T
     SCC iter.                  ...        0 min,  0.074 sec
     gradient                   ...        0 min,  0.002 sec
 * total energy  :   -31.5560218 Eh     change       -0.3582653E-06 Eh
   gradient norm :     0.0001425 Eh/α   predicted    -0.1549833E-06 ( -56.74%)
   displ. norm   :     0.0106864 α      lambda       -0.2176998E-06
   maximum displ.:     0.0077399 α      in ANC's #1, #4, #5, ...

........................................................................
.............................. CYCLE   39 ..............................
........................................................................

 iter      E             dE          RMSdq      gap      omega  full diag
   1    -32.0767385 -0.320767E+02  0.350E-03    3.67       0.0  T
   2    -32.0767385 -0.809038E-09  0.205E-03    3.67       9.6  T
   3    -32.0767385  0.334254E-09  0.186E-04    3.67     105.5  T
   4    -32.0767385 -0.502560E-09  0.706E-05    3.67     277.7  T
   5    -32.0767385 -0.725251E-10  0.239E-05    3.67     820.0  T
   6    -32.0767385 -0.142109E-11  0.116E-05    3.67    1684.5  T
   7    -32.0767385 -0.532907E-12  0.423E-06    3.67    4632.3  T
   8    -32.0767385 -0.241585E-12  0.148E-06    3.67   13295.5  T
     SCC iter.                  ...        0 min,  0.074 sec
     gradient                   ...        0 min,  0.002 sec
 * total energy  :   -31.5560221 Eh     change       -0.2542412E-06 Eh
   gradient norm :     0.0001201 Eh/α   predicted    -0.1094607E-06 ( -56.95%)
   displ. norm   :     0.0076591 α      lambda       -0.1270697E-06
   maximum displ.:     0.0066143 α      in ANC's #1, #4, #5, ...

........................................................................
.............................. CYCLE   40 ..............................
........................................................................

 iter      E             dE          RMSdq      gap      omega  full diag
   1    -32.0767421 -0.320767E+02  0.293E-03    3.67       0.0  T
   2    -32.0767421 -0.501679E-09  0.172E-03    3.67      11.4  T
   3    -32.0767421  0.155779E-09  0.140E-04    3.67     139.9  T
   4    -32.0767421 -0.259959E-09  0.563E-05    3.67     348.1  T
   5    -32.0767421 -0.437979E-10  0.210E-05    3.67     935.1  T
   6    -32.0767421 -0.245137E-11  0.989E-06    3.67    1982.4  T
   7    -32.0767421 -0.177636E-12  0.271E-06    3.67    7227.6  T
     SCC iter.                  ...        0 min,  0.074 sec
     gradient                   ...        0 min,  0.002 sec
 * total energy  :   -31.5560222 Eh     change       -0.1681303E-06 Eh
   gradient norm :     0.0000651 Eh/α   predicted    -0.6633979E-07 ( -60.54%)
   displ. norm   :     0.0059942 α      lambda       -0.1014735E-06
   maximum displ.:     0.0054242 α      in ANC's #1, #3, #4, ...

........................................................................
.............................. CYCLE   41 ..............................
........................................................................

 iter      E             dE          RMSdq      gap      omega  full diag
   1    -32.0767420 -0.320767E+02  0.236E-03    3.67       0.0  T
   2    -32.0767420 -0.254616E-09  0.138E-03    3.67      14.2  T
   3    -32.0767420  0.218442E-09  0.129E-04    3.67     152.6  T
   4    -32.0767420 -0.296097E-09  0.408E-05    3.67     480.3  T
   5    -32.0767420 -0.174580E-10  0.133E-05    3.67    1479.6  T
   6    -32.0767420 -0.895284E-12  0.650E-06    3.67    3016.0  T
   7    -32.0767420 -0.497380E-13  0.198E-06    3.67    9906.8  T
     SCC iter.                  ...        0 min,  0.073 sec
     gradient                   ...        0 min,  0.002 sec
 * total energy  :   -31.5560224 Eh     change       -0.1443781E-06 Eh
   gradient norm :     0.0000577 Eh/α   predicted    -0.5376350E-07 ( -62.76%)
   displ. norm   :     0.0061843 α      lambda       -0.1036753E-06
   maximum displ.:     0.0053729 α      in ANC's #1, #3, #6, ...

........................................................................
.............................. CYCLE   42 ..............................
........................................................................

 iter      E             dE          RMSdq      gap      omega  full diag
   1    -32.0767308 -0.320767E+02  0.237E-03    3.67       0.0  T
   2    -32.0767308 -0.349473E-09  0.138E-03    3.67      14.2  T
   3    -32.0767308  0.165983E-10  0.925E-05    3.67     212.0  T
   4    -32.0767308 -0.505267E-10  0.483E-05    3.67     406.0  T
   5    -32.0767308 -0.469811E-10  0.142E-05    3.67    1381.3  T
   6    -32.0767308 -0.973444E-12  0.604E-06    3.67    3246.7  T
   7    -32.0767308 -0.198952E-12  0.235E-06    3.67    8337.5  T
     SCC iter.                  ...        0 min,  0.074 sec
     gradient                   ...        0 min,  0.002 sec
 * total energy  :   -31.5560225 Eh     change       -0.1475046E-06 Eh
   gradient norm :     0.0000721 Eh/α   predicted    -0.5578454E-07 ( -62.18%)
   displ. norm   :     0.0065762 α      lambda       -0.1035299E-06
   maximum displ.:     0.0052790 α      in ANC's #1, #3, #6, ...
 * RMSD in coord.:     0.1905870 α      energy gain  -0.2941236E-03 Eh

generating ANC from model Hessian ...
Using Lindh-Hessian (1995)
 Shifting diagonal of input Hessian by   9.140233707849728E-003
 Lowest  eigenvalues of input Hessian
    0.000000    0.000000    0.000000    0.000000    0.000000    0.000000
    0.010000    0.010078    0.010729    0.011006    0.011407    0.012527
    0.015105    0.016955    0.018392    0.018594    0.021949    0.024149
 Highest eigenvalues
    1.363699    1.554076    1.573877    1.882167    1.988323    2.004394
 

........................................................................
.............................. CYCLE   43 ..............................
........................................................................

 iter      E             dE          RMSdq      gap      omega  full diag
   1    -32.0767262 -0.320767E+02  0.235E-03    3.67       0.0  T
   2    -32.0767262 -0.326693E-09  0.137E-03    3.67      14.4  T
   3    -32.0767262 -0.332605E-10  0.769E-05    3.67     255.0  T
   4    -32.0767262 -0.123848E-10  0.357E-05    3.67     549.1  T
   5    -32.0767262 -0.249898E-10  0.129E-05    3.67    1523.2  T
   6    -32.0767262 -0.923706E-12  0.572E-06    3.67    3430.7  T
   7    -32.0767262 -0.113687E-12  0.123E-06    3.67   15923.6  T
     SCC iter.                  ...        0 min,  0.074 sec
     gradient                   ...        0 min,  0.002 sec
 * total energy  :   -31.5560227 Eh     change       -0.1461863E-06 Eh
   gradient norm :     0.0000691 Eh/α   predicted     0.0000000E+00 (-100.00%)
   displ. norm   :     0.0001037 α      lambda        0.0000000E+00
   maximum displ.:     0.0000368 α      in ANC's #70, #53, #1, ...

........................................................................
.............................. CYCLE   44 ..............................
........................................................................

 iter      E             dE          RMSdq      gap      omega  full diag
   1    -32.0767237 -0.320767E+02  0.169E-04    3.67       0.0  T
   2    -32.0767237 -0.266880E-10  0.880E-05    3.67     223.0  T
   3    -32.0767237  0.491696E-11  0.327E-05    3.67     600.3  T
   4    -32.0767237 -0.660094E-11  0.148E-05    3.67    1324.1  T
   5    -32.0767237 -0.345324E-11  0.433E-06    3.67    4526.4  T
   6    -32.0767237 -0.355271E-13  0.142E-06    3.67   13777.4  T
     SCC iter.                  ...        0 min,  0.073 sec
     gradient                   ...        0 min,  0.002 sec
 * total energy  :   -31.5560227 Eh     change       -0.4706671E-08 Eh
   gradient norm :     0.0000403 Eh/α   predicted    -0.2894862E-08 ( -38.49%)
   displ. norm   :     0.0001037 α      lambda        0.0000000E+00
   maximum displ.:     0.0000368 α      in ANC's #70, #53, #1, ...

   *** GEOMETRY OPTIMIZATION CONVERGED AFTER 44 ITERATIONS ***

------------------------------------------------------------------------
 total energy gain   :        -0.0086212 Eh       -5.4099 kcal/mol
 total RMSD          :         0.9970003 a0        0.5276 Å
 total power (kW/mol):        -0.5144289 (step)   -6.3977 (real)
------------------------------------------------------------------------

 ANCopt (total)                0 d,  0 h,  0 min,  3.538 sec
 optimizer setup                ...        0 min,  0.000 sec (  0.002%)
 model hessian                  ...        0 min,  0.019 sec (  0.524%)
 ANC generation                 ...        0 min,  0.001 sec (  0.031%)
 coordinate transformation      ...        0 min,  0.000 sec (  0.012%)
 single point calculation       ...        0 min,  3.511 sec ( 99.231%)
 optimization log               ...        0 min,  0.003 sec (  0.079%)
 hessian update                 ...        0 min,  0.001 sec (  0.018%)
 rational function              ...        0 min,  0.003 sec (  0.074%)

================
 final structure:
================
26
 xtb: 6.7.0 (08769fc)
P            1.86265670571756       -0.28479053663464       -3.11649383448657
C            2.15797201274759        1.55088957609431       -2.93241686562635
H            1.99930817387441        1.86644154217607       -1.89801763150691
H            3.20206582624526        1.73864132615466       -3.19774358450247
C            1.24015777387600        2.33573998944859       -3.86203408573918
H            0.19549836190616        2.15941809996105       -3.61287821733131
H            1.39776163044090        2.03281264046589       -4.89505031893169
H            1.43532974435041        3.40395063457605       -3.78161598967294
C            3.25438326709655       -0.95150325475652       -2.11362694044771
C            3.78637707602729       -0.32773560300115       -0.99124580958265
C            3.77575003135448       -2.17767450266912       -2.51304822587166
C            4.81708453301227       -0.92186085627003       -0.28580533302361
C            4.80222752099377       -2.77506643682989       -1.80431746317320
C            5.32583531577795       -2.14579288923406       -0.68789672296106
H            3.40082562375366        0.62557541788932       -0.66027650809720
H            3.36445429186204       -2.65995985456728       -3.38939045243625
H            5.22501604808202       -0.42796690402525        0.58489696872849
H            5.19569262740292       -3.72967199929280       -2.12289812035322
H            6.12940209159951       -2.60635473354026       -0.13181894486589
C            0.52524679496604       -0.47349878690815       -1.82512667262657
H            0.86431405548617       -0.03428939802854       -0.88203786486973
H           -0.34561736575148        0.08716553281956       -2.17556203534742
C            0.15645392383758       -1.93682571773556       -1.62864550884202
H            1.01730270113283       -2.50181511436747       -1.27426637099419
H           -0.17502168748532       -2.37495409955248       -2.56802428409254
H           -0.64565207830535       -2.03643607217336       -0.89905118334639
 
 Bond Distances (Angstroems)
 ---------------------------
P1-C2=1.8684         P1-C9=1.8404         P1-C20=1.8687        C2-P1=1.8684         C2-H3=1.0930         C2-H4=1.0935         
C2-C5=1.5240         H3-C2=1.0930         H4-C2=1.0935         C5-C2=1.5240         C5-H6=1.0883         C5-H7=1.0880         
C5-H8=1.0889         H6-C5=1.0883         H7-C5=1.0880         H8-C5=1.0889         C9-P1=1.8404         C9-C10=1.3899        
C9-C11=1.3910        C10-C9=1.3899        C10-C12=1.3831       C10-H15=1.0803       C11-C9=1.3910        C11-C13=1.3831       
C11-H16=1.0815       C12-C10=1.3831       C12-C14=1.3851       C12-H17=1.0810       C13-C11=1.3831       C13-C14=1.3844       
C13-H18=1.0805       C14-C12=1.3851       C14-C13=1.3844       C14-H19=1.0803       H15-C10=1.0803       H16-C11=1.0815       
H17-C12=1.0810       H18-C13=1.0805       H19-C14=1.0803       C20-P1=1.8687        C20-H21=1.0942       C20-H22=1.0934       
C20-C23=1.5218       H21-C20=1.0942       H22-C20=1.0934       C23-C20=1.5218       C23-H24=1.0890       C23-H25=1.0882       
C23-H26=1.0889       H24-C23=1.0890       H25-C23=1.0882       H26-C23=1.0889       
 C  H  Rav=1.0873 sigma=0.0051  Rmin=1.0803  Rmax=1.0942    15
 C  C  Rav=1.4203 sigma=0.0593  Rmin=1.3831  Rmax=1.5240     8
 P  C  Rav=1.8592 sigma=0.0132  Rmin=1.8404  Rmax=1.8687     3
 
 selected bond angles (degree)
 --------------------
C9-P1-C2=100.53                C20-P1-C2= 98.29               C20-P1-C9= 97.36               H3-C2-P1=110.73                
H4-C2-P1=107.20                H4-C2-H3=108.58                C5-C2-P1=110.53                C5-C2-H3=109.95                
C5-C2-H4=109.79                H6-C5-C2=110.79                H7-C5-C2=110.40                H7-C5-H6=108.14                
H8-C5-C2=110.62                H8-C5-H6=108.31                H8-C5-H7=108.50                C10-C9-P1=124.53               
C11-C9-P1=116.51               C11-C9-C10=118.95              C12-C10-C9=120.29              H15-C10-C9=120.45              
H15-C10-C12=119.26             
 
 selected dihedral angles (degree)
 ---------------------------------
H3-C2-P1-C9=293.45            H3-C2-P1-C20= 32.59           H4-C2-P1-C9= 51.74            H4-C2-P1-C20=150.87           
C5-C2-P1-C9=171.37            C5-C2-P1-C20=270.50           H6-C5-C2-P1= 61.87            H6-C5-C2-H3=299.32            
H6-C5-C2-H4=179.92            H7-C5-C2-P1=302.10            H7-C5-C2-H3=179.55            H7-C5-C2-H4= 60.16            
H8-C5-C2-P1=181.99            H8-C5-C2-H3= 59.44            H8-C5-C2-H4=300.05            C10-C9-P1-C2= 32.30           
C10-C9-P1-C20=292.40          C11-C9-P1-C2=211.07           C11-C9-P1-C20=111.17          C12-C10-C9-P1=178.69          
C12-C10-C9-C11=359.95         H15-C10-C9-P1=358.65          H15-C10-C9-C11=179.91         
           -------------------------------------------------
          |                Final Singlepoint                |
[...]
         :: total charge               0.000000000000 e     ::
         :::::::::::::::::::::::::::::::::::::::::::::::::::::

           ------------------------------------------------- 
          |                Numerical Hessian                |
           ------------------------------------------------- 
step length          :   0.00500
SCC accuracy         :   0.30000
Hessian scale factor :   1.00000
frozen atoms in %    :   0.00000    0
RMS gradient         :   0.00004
estimated CPU  time      0.97 min
estimated wall time      0.12 min

writing file <hessian>.

 projected vibrational frequencies (cm⁻¹)
eigval :       -0.00    -0.00    -0.00     0.00     0.00     0.00
eigval :       11.24    53.34    72.62    99.68   131.20   159.73
eigval :      199.54   215.04   232.95   266.24   290.32   334.10
eigval :      361.51   429.15   452.51   586.00   656.97   661.87
eigval :      687.26   699.05   735.78   762.41   779.41   873.53
eigval :      897.98   926.22   932.61   969.15   977.13   993.99
eigval :     1012.31  1018.73  1071.08  1077.24  1083.45  1117.38
eigval :     1120.84  1181.62  1198.26  1224.49  1229.54  1251.12
eigval :     1252.28  1280.02  1315.42  1409.71  1410.98  1423.32
eigval :     1438.66  1448.33  1457.46  1497.25  1498.84  1500.96
eigval :     1502.53  1579.64  1589.40  2925.59  2936.17  2948.04
eigval :     2951.10  3013.88  3014.31  3020.11  3024.55  3030.00
eigval :     3033.51  3061.87  3066.17  3074.33  3080.34  3088.03
           -------------------------------------------------
          |                Property Printout                |
           -------------------------------------------------

    * Orbital Energies and Occupations

         #    Occupation            Energy/Eh            Energy/eV
      -------------------------------------------------------------
         1        2.0000           -0.6580609             -17.9067
       ...           ...                  ...                  ...
        18        2.0000           -0.4772832             -12.9875
        19        2.0000           -0.4744927             -12.9116
        20        2.0000           -0.4633160             -12.6075
        21        2.0000           -0.4617823             -12.5657
        22        2.0000           -0.4524152             -12.3108
        23        2.0000           -0.4446561             -12.0997
        24        2.0000           -0.4381991             -11.9240
        25        2.0000           -0.4230288             -11.5112
        26        2.0000           -0.4182354             -11.3808
        27        2.0000           -0.4045851             -11.0093
        28        2.0000           -0.4040352             -10.9944
        29        2.0000           -0.3968817             -10.7997
        30        2.0000           -0.3672808              -9.9942 (HOMO)
        31                         -0.2324915              -6.3264 (LUMO)
        32                         -0.2227435              -6.0612
        33                         -0.1561035              -4.2478
        34                         -0.1514360              -4.1208
        35                         -0.0928351              -2.5262
        36                         -0.0021075              -0.0573
        37                          0.0593262               1.6143
        38                          0.0917593               2.4969
        39                          0.1098769               2.9899
        40                          0.1324839               3.6051
        41                          0.1365078               3.7146
       ...                                ...                  ...
        64                          0.7813199              21.2608
      -------------------------------------------------------------
                  HL-Gap            0.1347893 Eh            3.6678 eV
             Fermi-level           -0.2998862 Eh           -8.1603 eV

     #   Z          covCN         q      C6AA      α(0)
     1  15 P        3.058    -0.114   165.382    23.102
     2   6 C        3.748    -0.048    21.494     6.613
     3   1 H        0.925     0.041     2.432     2.439
     4   1 H        0.925     0.040     2.448     2.447
     5   6 C        3.823    -0.098    22.349     6.727
     6   1 H        0.925     0.036     2.497     2.471
     7   1 H        0.925     0.042     2.421     2.433
     8   1 H        0.925     0.033     2.548     2.496
     9   6 C        2.916     0.008    27.845     8.653
    10   6 C        2.960    -0.030    28.741     8.793
    11   6 C        3.019    -0.030    28.730     8.792
    12   6 C        2.919    -0.031    28.768     8.796
    13   6 C        2.918    -0.030    28.748     8.792
    14   6 C        2.920    -0.029    28.735     8.791
    15   1 H        0.926     0.032     2.562     2.503
    16   1 H        0.925     0.039     2.458     2.452
    17   1 H        0.926     0.028     2.612     2.527
    18   1 H        0.926     0.030     2.586     2.515
    19   1 H        0.926     0.029     2.599     2.521
    20   6 C        3.748    -0.045    21.446     6.605
    21   1 H        0.925     0.042     2.420     2.433
    22   1 H        0.925     0.040     2.449     2.447
    23   6 C        3.818    -0.097    22.334     6.726
    24   1 H        0.925     0.036     2.502     2.474
    25   1 H        0.925     0.042     2.425     2.435
    26   1 H        0.925     0.033     2.551     2.498

 Mol. C6AA /au·bohr⁶  :       7598.122309
 Mol. C8AA /au·bohr⁸  :     202558.739555
 Mol. α(0) /au        :        139.481279


Wiberg/Mayer (AO) data.
largest (>0.10) Wiberg bond orders for each atom

 ---------------------------------------------------------------------------
     #   Z sym  total        # sym  WBO       # sym  WBO       # sym  WBO
 ---------------------------------------------------------------------------
     1  15 P    3.344 --     2 C    1.027    20 C    1.019     9 C    1.008
     2   6 C    3.995 --     1 P    1.027     5 C    1.016     4 H    0.960
                             3 H    0.952
     3   1 H    0.998 --     2 C    0.952
     4   1 H    0.998 --     2 C    0.960
     5   6 C    3.996 --     2 C    1.016     7 H    0.985     8 H    0.985
                             6 H    0.984
     6   1 H    0.999 --     5 C    0.984
     7   1 H    0.998 --     5 C    0.985
     8   1 H    0.998 --     5 C    0.985
     9   6 C    3.983 --    11 C    1.406    10 C    1.401     1 P    1.008
                            14 C    0.108
    10   6 C    3.993 --    12 C    1.448     9 C    1.401    15 H    0.963
                            13 C    0.110
    11   6 C    3.991 --    13 C    1.444     9 C    1.406    16 H    0.964
                            12 C    0.109
    12   6 C    3.993 --    10 C    1.448    14 C    1.434    17 H    0.970
                            11 C    0.109
    13   6 C    3.992 --    11 C    1.444    14 C    1.439    18 H    0.970
                            10 C    0.110
    14   6 C    3.991 --    13 C    1.439    12 C    1.434    19 H    0.971
                             9 C    0.108
    15   1 H    0.999 --    10 C    0.963
    16   1 H    0.998 --    11 C    0.964
    17   1 H    0.999 --    12 C    0.970
    18   1 H    0.999 --    13 C    0.970
    19   1 H    0.998 --    14 C    0.971
    20   6 C    3.996 --     1 P    1.019    23 C    1.017    22 H    0.957
                            21 H    0.952
    21   1 H    0.998 --    20 C    0.952
    22   1 H    0.998 --    20 C    0.957
    23   6 C    3.997 --    20 C    1.017    25 H    0.985    26 H    0.984
                            24 H    0.984
    24   1 H    0.999 --    23 C    0.984
    25   1 H    0.998 --    23 C    0.985
    26   1 H    0.999 --    23 C    0.984
 ---------------------------------------------------------------------------

Topologies differ in total number of bonds
Writing topology from bond orders to xtbtopo.mol

molecular dipole:
                 x           y           z       tot (Debye)
 q only:       -0.091       0.124       0.197
   full:       -0.017       0.269       0.574       1.613
molecular quadrupole (traceless):
                xx          xy          yy          xz          yz          zz
 q only:        0.095       0.188       2.381       2.116      -1.041      -2.476
  q+dip:        2.583      -0.954       4.115       5.557      -0.428      -6.698
   full:        3.330       0.174       4.205       4.071      -2.300      -7.536

           -------------------------------------------------
          |                Geometry Summary                 |
           -------------------------------------------------

      molecular mass/u    :      166.2002322
   center of mass at/Å    :        2.6993153      -0.6454911      -2.1155819
  moments of inertia/u·Å² :        0.3311648E+03   0.8142525E+03   0.9504981E+03
rotational constants/cm⁻¹ :        0.5090406E-01   0.2070320E-01   0.1773558E-01

 * 23 selected distances

     #   Z          #   Z                                           value/Å
     2   6 C        3   1 H                                       1.0930367
     2   6 C        4   1 H                                       1.0935178
     2   6 C        5   6 C                                       1.5239953 (max)
     5   6 C        6   1 H                                       1.0883389
     5   6 C        7   1 H                                       1.0879921
     5   6 C        8   1 H                                       1.0888679
     9   6 C       10   6 C                                       1.3899076
     9   6 C       11   6 C                                       1.3909914
    10   6 C       12   6 C                                       1.3831086
    11   6 C       13   6 C                                       1.3830520
    12   6 C       14   6 C                                       1.3851046
    13   6 C       14   6 C                                       1.3843937
    10   6 C       15   1 H                                       1.0802744 (min)
    11   6 C       16   1 H                                       1.0815448
    12   6 C       17   1 H                                       1.0809542
    13   6 C       18   1 H                                       1.0805464
    14   6 C       19   1 H                                       1.0803053
    20   6 C       21   1 H                                       1.0942067
    20   6 C       22   1 H                                       1.0934139
    20   6 C       23   6 C                                       1.5218210
    23   6 C       24   1 H                                       1.0889713
    23   6 C       25   1 H                                       1.0882395
    23   6 C       26   1 H                                       1.0888546

 * 2 distinct bonds (by element types)

   Z      Z             #   av. dist./Å        max./Å        min./Å
   1 H    6 C          15     1.0872710     1.0942067     1.0802744
   6 C    6 C           8     1.4202968     1.5239953     1.3830520

           -------------------------------------------------
          |               Frequency Printout                |
           -------------------------------------------------
 projected vibrational frequencies (cm⁻¹)
eigval :       -0.00    -0.00    -0.00     0.00     0.00     0.00
eigval :       11.24    53.34    72.62    99.68   131.20   159.73
eigval :      199.54   215.04   232.95   266.24   290.32   334.10
eigval :      361.51   429.15   452.51   586.00   656.97   661.87
eigval :      687.26   699.05   735.78   762.41   779.41   873.53
eigval :      897.98   926.22   932.61   969.15   977.13   993.99
eigval :     1012.31  1018.73  1071.08  1077.24  1083.45  1117.38
eigval :     1120.84  1181.62  1198.26  1224.49  1229.54  1251.12
eigval :     1252.28  1280.02  1315.42  1409.71  1410.98  1423.32
eigval :     1438.66  1448.33  1457.46  1497.25  1498.84  1500.96
eigval :     1502.53  1579.64  1589.40  2925.59  2936.17  2948.04
eigval :     2951.10  3013.88  3014.31  3020.11  3024.55  3030.00
eigval :     3033.51  3061.87  3066.17  3074.33  3080.34  3088.03
 reduced masses (amu)
   1: 12.30   2: 13.78   3: 14.97   4: 10.55   5: 13.38   6: 11.62   7: 10.01   8:  9.96
   9:  8.56  10:  8.51  11:  9.66  12:  7.12  13:  6.55  14:  4.27  15:  8.99  16:  9.74
  17: 12.87  18: 12.99  19:  8.81  20: 21.18  21: 10.20  22: 11.17  23: 11.09  24: 12.26
  25: 13.35  26: 16.43  27:  3.58  28:  4.31  29:  5.29  30:  3.32  31:  3.55  32:  4.19
  33:  3.03  34: 10.42  35:  3.15  36:  2.96  37:  3.74  38:  4.24  39:  9.55  40:  9.38
  41:  8.01  42:  7.16  43:  5.87  44:  1.34  45:  2.00  46:  3.56  47:  3.45  48:  4.30
  49:  4.24  50:  3.35  51: 11.95  52:  2.90  53:  2.95  54:  8.58  55:  2.14  56:  2.08
  57:  8.24  58:  1.52  59:  1.53  60:  1.55  61:  1.55  62: 11.46  63: 11.45  64:  1.83
  65:  1.85  66:  1.62  67:  1.65  68:  1.91  69:  1.87  70:  1.81  71:  1.87  72:  1.43
  73:  1.41  74:  1.79  75:  1.76  76:  1.82  77:  1.86  78:  1.92
 IR intensities (km·mol⁻¹)
   1:  0.01   2:  0.05   3:  0.02   4:  0.07   5:  0.04   6:  0.25   7:  0.22   8:  0.01
   9:  0.08  10:  0.06  11:  0.27  12:  0.22  13:  0.25  14:  0.17  15:  0.02  16:  0.50
  17:  0.10  18:  0.33  19:  0.06  20:  8.66  21:  3.11  22:  0.12  23:  4.47  24:  6.22
  25:  4.73  26: 45.05  27: 14.01  28: 23.81  29: 22.10  30:  0.06  31:  0.04  32:  0.05
  33:  0.00  34:  1.88  35:  1.23  36:  4.36  37:  2.67  38:  1.27  39:  2.86  40:  2.34
  41:  0.02  42:  3.22  43:  3.27  44:  0.02  45:  0.67  46:  2.27  47:  0.57  48: 11.58
  49:  4.98  50:  1.57  51:  0.83  52:  1.48  53:  2.10  54:  1.58  55:  0.35  56:  0.48
  57:  0.53  58:  2.11  59:  2.81  60:  1.77  61:  1.02  62:  0.36  63:  0.88  64: 12.25
  65: 31.61  66: 10.44  67: 30.24  68: 48.82  69: 48.27  70: 29.99  71: 36.47  72: 15.15
  73: 23.49  74: 12.56  75:  5.54  76: 23.19  77: 77.50  78: 56.59
 Raman intensities (Ä⁴*amu⁻¹)
   1:  0.00   2:  0.00   3:  0.00   4:  0.00   5:  0.00   6:  0.00   7:  0.00   8:  0.00
   9:  0.00  10:  0.00  11:  0.00  12:  0.00  13:  0.00  14:  0.00  15:  0.00  16:  0.00
  17:  0.00  18:  0.00  19:  0.00  20:  0.00  21:  0.00  22:  0.00  23:  0.00  24:  0.00
  25:  0.00  26:  0.00  27:  0.00  28:  0.00  29:  0.00  30:  0.00  31:  0.00  32:  0.00
  33:  0.00  34:  0.00  35:  0.00  36:  0.00  37:  0.00  38:  0.00  39:  0.00  40:  0.00
  41:  0.00  42:  0.00  43:  0.00  44:  0.00  45:  0.00  46:  0.00  47:  0.00  48:  0.00
  49:  0.00  50:  0.00  51:  0.00  52:  0.00  53:  0.00  54:  0.00  55:  0.00  56:  0.00
  57:  0.00  58:  0.00  59:  0.00  60:  0.00  61:  0.00  62:  0.00  63:  0.00  64:  0.00
  65:  0.00  66:  0.00  67:  0.00  68:  0.00  69:  0.00  70:  0.00  71:  0.00  72:  0.00
  73:  0.00  74:  0.00  75:  0.00  76:  0.00  77:  0.00  78:  0.00
 output can be read by thermo (or use thermo option).
 writing <g98.out> molden fake output.
 recommended (thermochemical) frequency scaling factor: 1.0
           -------------------------------------------------
          |             Thermodynamic Functions             |
           -------------------------------------------------

Refinement of some symmetry elements was terminated before convergence was reached.
Some symmetry elements may remain unidentified.
Molecule has no symmetry elements
It seems to be the C1 point group
c1  symmetry found (for desy threshold:  0.10E+00) used in thermo

          ...................................................
          :                      SETUP                      :
          :.................................................:
          :  # frequencies                          72      :
          :  # imaginary freq.                       0      :
          :  linear?                             false      :
          :  only rotor calc.                    false      :
          :  symmetry                               c1      :
          :  rotational number                       1      :
          :  scaling factor                  1.0000000      :
          :  rotor cutoff                   50.0000000 cm⁻¹ :
          :  imag. cutoff                  -20.0000000 cm⁻¹ :
          :.................................................:

    mode    ω/cm⁻¹     T·S(HO)/kcal·mol⁻¹    T·S(FR)/kcal·mol⁻¹   T·S(vib)
   ------------------------------------------------------------------------
       1     11.24    -2.31912 (  0.25%)    -1.49801 ( 99.75%)    -1.50010
       2     53.34    -1.39816 ( 56.43%)    -1.03725 ( 43.57%)    -1.24093
       3     72.62    -1.21680 ( 81.65%)    -0.94591 ( 18.35%)    -1.16709
       4     99.68    -1.03179 ( 94.05%)    -0.85210 (  5.95%)    -1.02109
       5    131.20    -0.87310 ( 97.93%)    -0.77071 (  2.07%)    -0.87098
       6    159.73    -0.76115 ( 99.05%)    -0.71242 (  0.95%)    -0.76069
       7    199.54    -0.63725 ( 99.61%)    -0.64652 (  0.39%)    -0.63728
       8    215.04    -0.59645 ( 99.71%)    -0.62436 (  0.29%)    -0.59653
       9    232.95    -0.55340 ( 99.79%)    -0.60067 (  0.21%)    -0.55350
      10    266.24    -0.48314 ( 99.88%)    -0.56109 (  0.12%)    -0.48324
      11    290.32    -0.43891 ( 99.91%)    -0.53545 (  0.09%)    -0.43899
   ------------------------------------------------------------------------

   temp. (K)  partition function   enthalpy   heat capacity  entropy
                                   cal/mol     cal/K/mol   cal/K/mol   J/K/mol
 298.15  VIB  0.607E+05             6270.528     39.266     39.436
         ROT  0.122E+07              888.752      2.981     30.836
         INT  0.743E+11             7159.280     42.247     70.272
         TR   0.207E+28             1481.254      4.968     41.214
         TOT                        8640.5343    47.2155   111.4859   466.4572

       T/K    H(0)-H(T)+PV         H(T)/Eh          T*S/Eh         G(T)/Eh
   ------------------------------------------------------------------------
    298.15    0.137696E-01    0.232263E+00    0.529706E-01    0.179292E+00
   ------------------------------------------------------------------------

         :::::::::::::::::::::::::::::::::::::::::::::::::::::
         ::                  THERMODYNAMIC                  ::
         :::::::::::::::::::::::::::::::::::::::::::::::::::::
         :: total free energy         -31.376730553467 Eh   ::
         ::.................................................::
         :: total energy              -31.556022681612 Eh   ::
         :: zero point energy           0.218493125874 Eh   ::
         :: G(RRHO) w/o ZPVE           -0.039200997729 Eh   ::
         :: G(RRHO) contrib.            0.179292128145 Eh   ::
         :::::::::::::::::::::::::::::::::::::::::::::::::::::

optimized geometry written to: xtbopt.xyz


           -------------------------------------------------
          | TOTAL ENERGY              -31.556022681612 Eh   |
          | TOTAL ENTHALPY            -31.323759987880 Eh   |
          | TOTAL FREE ENERGY         -31.376730553467 Eh   |
          | GRADIENT NORM               0.000040329681 Eh/α |
          | HOMO-LUMO GAP               3.667803654944 eV   |
           -------------------------------------------------

------------------------------------------------------------------------
 * finished run on 2025/07/14 at 11:38:58.445     
------------------------------------------------------------------------
 total:
 * wall-time:     0 d,  0 h,  0 min,  6.905 sec
 *  cpu-time:     0 d,  0 h,  1 min, 10.167 sec
 * ratio c/w:    10.161 speedup
 SCF:
 * wall-time:     0 d,  0 h,  0 min,  0.099 sec
 *  cpu-time:     0 d,  0 h,  0 min,  1.117 sec
 * ratio c/w:    11.282 speedup
 ANC optimizer:
 * wall-time:     0 d,  0 h,  0 min,  3.617 sec
 *  cpu-time:     0 d,  0 h,  0 min, 42.964 sec
 * ratio c/w:    11.879 speedup
 analytical hessian:
 * wall-time:     0 d,  0 h,  0 min,  3.180 sec
 *  cpu-time:     0 d,  0 h,  0 min, 25.985 sec
 * ratio c/w:     8.171 speedup

