      -----------------------------------------------------------      
     |                   =====================                   |     
     |                           x T B                           |     
     |                   =====================                   |     
     |                         S. Grimme                         |     
     |          Mulliken Center for Theoretical Chemistry        |     
     |                    University of Bonn                     |     
      -----------------------------------------------------------      

   * xtb version 6.7.0 (08769fc) compiled by 'albert@albert-system' on 2024-03-04

   xtb is free software: you can redistribute it and/or modify it under
   the terms of the GNU Lesser General Public License as published by
   the Free Software Foundation, either version 3 of the License, or
   (at your option) any later version.
   
   xtb is distributed in the hope that it will be useful,
   but WITHOUT ANY WARRANTY; without even the implied warranty of
   MERCHANTABILITY or FITNESS FOR A PARTICULAR PURPOSE.  See the
   GNU Lesser General Public License for more details.
   
   Cite this work as:
   * C. Bannwarth, E. Caldeweyher, S. Ehlert, A. Hansen, P. Pracht,
     J. Seibert, S. Spicher, S. Grimme, WIREs Comput. Mol. Sci., 2020, 11,
     e01493. DOI: 10.1002/wcms.1493
   
   for GFN2-xTB:
   * C. Bannwarth, S. Ehlert and S. Grimme., J. Chem. Theory Comput., 2019,
     15, 1652-1671. DOI: 10.1021/acs.jctc.8b01176
   for GFN1-xTB:
   * S. Grimme, C. Bannwarth, P. Shushkov, J. Chem. Theory Comput., 2017,
     13, 1989-2009. DOI: 10.1021/acs.jctc.7b00118
   for GFN0-xTB:
   * P. Pracht, E. Caldeweyher, S. Ehlert, S. Grimme, ChemRxiv, 2019, preprint.
     DOI: 10.26434/chemrxiv.8326202.v1
   for GFN-FF:
   * S. Spicher and S. Grimme, Angew. Chem. Int. Ed., 2020, 59, 15665-15673.
     DOI: 10.1002/anie.202004239
   
   for ALPB and GBSA implicit solvation:
   * S. Ehlert, M. Stahn, S. Spicher, S. Grimme, J. Chem. Theory Comput.,
     2021, 17, 4250-4261. DOI: 10.1021/acs.jctc.1c00471
   
   for ddCOSMO and CPCM-X implicit solvation:
   * M. Stahn, S. Ehlert, S. Grimme, J. Phys. Chem. A,
     2023, XX, XXXX-XXXX. DOI: 10.1021/acs.jpca.3c04382
   
   for DFT-D4:
   * E. Caldeweyher, C. Bannwarth and S. Grimme, J. Chem. Phys., 2017,
     147, 034112. DOI: 10.1063/1.4993215
   * E. Caldeweyher, S. Ehlert, A. Hansen, H. Neugebauer, S. Spicher,
     C. Bannwarth and S. Grimme, J. Chem. Phys., 2019, 150, 154122.
     DOI: 10.1063/1.5090222
   * E. Caldeweyher, J.-M. Mewes, S. Ehlert and S. Grimme, Phys. Chem. Chem. Phys.
     2020, 22, 8499-8512. DOI: 10.1039/D0CP00502A
   
   for sTDA-xTB:
   * S. Grimme and C. Bannwarth, J. Chem. Phys., 2016, 145, 054103.
     DOI: 10.1063/1.4959605
   
   in the mass-spec context:
   * V. Asgeirsson, C. Bauer and S. Grimme, Chem. Sci., 2017, 8, 4879.
     DOI: 10.1039/c7sc00601b
   * J. Koopman and S. Grimme, ACS Omega 2019, 4, 12, 15120-15133.
     DOI: 10.1021/acsomega.9b02011
   
   for metadynamics refer to:
   * S. Grimme, J. Chem. Theory Comput., 2019, 155, 2847-2862
     DOI: 10.1021/acs.jctc.9b00143
   
   for SPH calculations refer to:
   * S. Spicher and S. Grimme, J. Chem. Theory Comput., 2021, 17, 1701-1714
     DOI: 10.1021/acs.jctc.0c01306
   
   for ONIOM refer to:
   * C. Plett, A. Katbashev, S. Ehlert, S. Grimme, M. Bursch,
     Phys. Chem. Chem. Phys., 2023, 25, 17860-17868. DOI: 10.1039/D3CP02178E
   
   for DIPRO refer to:
   * J. Kohn, N. Gildemeister, S. Grimme, D. Fazzi, A. Hansen,
     J. Chem. Phys., 2023, just accepted.
   
   for PTB refer to:
   * S. Grimme, M. Mueller, A. Hansen, J. Chem. Phys., 2023, 158, 124111.
     DOI: 10.1063/5.0137838
   
   with help from (in alphabetical order)
   P. Atkinson, C. Bannwarth, F. Bohle, G. Brandenburg, E. Caldeweyher
   M. Checinski, S. Dohm, S. Ehlert, S. Ehrlich, I. Gerasimov, C. Hölzer
   A. Katbashev, J. Kohn, J. Koopman, C. Lavigne, S. Lehtola, F. März, M. Müller,
   F. Musil, H. Neugebauer, J. Pisarek, C. Plett, P. Pracht, F. Pultar,
   J. Seibert, P. Shushkov, S. Spicher, M. Stahn, M. Steiner, T. Strunk,
   J. Stückrath, T. Rose, and J. Unsleber
   
 * started run on 2025/07/14 at 11:35:54.405     
   ID    Z sym.   atoms
    1   15 P      1
    2    6 C      2, 5, 9-14, 20, 23
    3    1 H      3, 4, 6-8, 15-19, 21, 22, 24-26

           -------------------------------------------------
          |                Calculation Setup                |
           -------------------------------------------------

          program call               : /home/minenky/programs/xtb/xtb-dist/bin/xtb m1_00_PEt2Ph-PBE0-D3-TZ-uniMM_60.xyz --charge 0 --T --ohess extreme --cycles 5000 --acc 0.01 --iterations 5000
          coordinate file            : m1_00_PEt2Ph-PBE0-D3-TZ-uniMM_60.xyz
          omp threads                :                    12

########################################################################
[WARNING] Please study the warnings concerning your input carefully
-1- prog_main_parseArguments: Unknown option '--T' provided
########################################################################

           -------------------------------------------------
          |                 G F N 2 - x T B                 |
           -------------------------------------------------

        Reference                      10.1021/acs.jctc.8b01176
      * Hamiltonian:
        H0-scaling (s, p, d)           1.850000    2.230000    2.230000
        zeta-weighting                 0.500000
      * Dispersion:
        s8                             2.700000
        a1                             0.520000
        a2                             5.000000
        s9                             5.000000
      * Repulsion:
        kExp                           1.500000    1.000000
        rExp                           1.000000
      * Coulomb:
        alpha                          2.000000
        third order                    shell-resolved
        anisotropic                    true
        a3                             3.000000
        a5                             4.000000
        cn-shift                       1.200000
        cn-exp                         4.000000
        max-rad                        5.000000


          ...................................................
          :                      SETUP                      :
          :.................................................:
          :  # basis functions                  65          :
          :  # atomic orbitals                  64          :
          :  # shells                           38          :
          :  # electrons                        60          :
          :  max. iterations                  5000          :
          :  Hamiltonian                  GFN2-xTB          :
          :  restarted?                      false          :
          :  GBSA solvation                  false          :
          :  PC potential                    false          :
          :  electronic temp.          300.0000000     K    :
          :  accuracy                    0.0100000          :
          :  -> integral cutoff          0.4500000E+02      :
          :  -> integral neglect         0.1000000E-09      :
          :  -> SCF convergence          0.1000000E-07 Eh   :
          :  -> wf. convergence          0.1000000E-05 e    :
          :  Broyden damping             0.4000000          :
          :  net charge                          0          :
          :  unpaired electrons                  0          :
          ...................................................

 iter      E             dE          RMSdq      gap      omega  full diag
   1    -32.0022688 -0.320023E+02  0.375E+00    3.91       0.0  T
   2    -32.0450456 -0.427767E-01  0.223E+00    3.48       1.0  T
   3    -32.0445021  0.543418E-03  0.872E-01    3.22       1.0  T
   4    -32.0458755 -0.137331E-02  0.293E-01    3.26       1.0  T
   5    -32.0472978 -0.142231E-02  0.119E-01    3.30       1.0  T
   6    -32.0475134 -0.215600E-03  0.406E-02    3.29       1.0  T
   7    -32.0475258 -0.123979E-04  0.150E-02    3.30       1.3  T
   8    -32.0475262 -0.441940E-06  0.683E-03    3.29       2.9  T
   9    -32.0475266 -0.394511E-06  0.167E-03    3.29      11.7  T
  10    -32.0475266 -0.304223E-07  0.531E-04    3.29      37.0  T
  11    -32.0475266 -0.410481E-09  0.287E-04    3.29      68.4  T
  12    -32.0475266 -0.518831E-09  0.560E-05    3.29     350.3  T
  13    -32.0475266 -0.408562E-11  0.221E-05    3.29     887.1  T
  14    -32.0475266 -0.283507E-11  0.867E-06    3.29    2260.9  T
  15    -32.0475266 -0.149214E-12  0.206E-06    3.29    9524.3  T

   *** convergence criteria satisfied after 15 iterations ***

         #    Occupation            Energy/Eh            Energy/eV
      -------------------------------------------------------------
         1        2.0000           -0.6608346             -17.9822
       ...           ...                  ...                  ...
        24        2.0000           -0.4353605             -11.8468
        25        2.0000           -0.4251429             -11.5687
        26        2.0000           -0.4187604             -11.3950
        27        2.0000           -0.4067581             -11.0685
        28        2.0000           -0.4013206             -10.9205
        29        2.0000           -0.3990198             -10.8579
        30        2.0000           -0.3521789              -9.5833 (HOMO)
        31                         -0.2311169              -6.2890 (LUMO)
        32                         -0.2216268              -6.0308
        33                         -0.1565193              -4.2591
        34                         -0.1333920              -3.6298
        35                         -0.0916988              -2.4953
       ...                                ...                  ...
        64                          0.7765833              21.1319
      -------------------------------------------------------------
                  HL-Gap            0.1210620 Eh            3.2943 eV
             Fermi-level           -0.2916479 Eh           -7.9361 eV

 SCC (total)                   0 d,  0 h,  0 min,  0.085 sec
 SCC setup                      ...        0 min,  0.000 sec (  0.149%)
 Dispersion                     ...        0 min,  0.000 sec (  0.152%)
 classical contributions        ...        0 min,  0.000 sec (  0.012%)
 integral evaluation            ...        0 min,  0.002 sec (  2.166%)
 iterations                     ...        0 min,  0.081 sec ( 95.301%)
 molecular gradient             ...        0 min,  0.002 sec (  2.111%)
 printout                       ...        0 min,  0.000 sec (  0.089%)

         :::::::::::::::::::::::::::::::::::::::::::::::::::::
         ::                     SUMMARY                     ::
         :::::::::::::::::::::::::::::::::::::::::::::::::::::
         :: total energy             -31.532256071484 Eh    ::
         :: gradient norm              0.056802474342 Eh/a0 ::
         :: HOMO-LUMO gap              3.294264680012 eV    ::
         ::.................................................::
         :: SCC energy               -32.047300671044 Eh    ::
         :: -> isotropic ES            0.004479194200 Eh    ::
         :: -> anisotropic ES          0.006235854832 Eh    ::
         :: -> anisotropic XC          0.022495784122 Eh    ::
         :: -> dispersion             -0.024230973656 Eh    ::
         :: repulsion energy           0.515044599560 Eh    ::
         :: add. restraining           0.000000000000 Eh    ::
         :: total charge              -0.000000000000 e     ::
         :::::::::::::::::::::::::::::::::::::::::::::::::::::

      ----------------------------------------------------------- 
     |                   =====================                   |
     |                        A N C O P T                        |
     |                   =====================                   |
     |               Approximate Normal Coordinate               |
     |                Rational Function Optimizer                |
      ----------------------------------------------------------- 
      ----------------------------------------------------------- 
     |                   =====================                   |
     |                        A N C O P T                        |
     |                   =====================                   |
     |               Approximate Normal Coordinate               |
     |                Rational Function Optimizer                |
      ----------------------------------------------------------- 

          ...................................................
          :                      SETUP                      :
          :.................................................:
          :   optimization level           extreme          :
          :   max. optcycles                  5000          :
          :   ANC micro-cycles                  20          :
          :   degrees of freedom                72          :
          :.................................................:
          :   RF solver                   davidson          :
          :   write xtbopt.log                true          :
          :   linear?                        false          :
          :   energy convergence         0.5000000E-07 Eh   :
          :   grad. convergence          0.5000000E-04 Eh/α :
          :   maxmium RF displ.          1.0000000          :
          :   Hlow (freq-cutoff)         0.1000000E-01      :
          :   Hmax (freq-cutoff)         5.0000000          :
          :   S6 in model hess.         20.0000000          :
          ...................................................

generating ANC from model Hessian ...
Using Lindh-Hessian (1995)
 Shifting diagonal of input Hessian by   1.302896157796960E-002
 Lowest  eigenvalues of input Hessian
    0.010000    0.012319    0.000000    0.000000    0.000000    0.000000
    0.000000    0.000000    0.013874    0.014011    0.015074    0.015643
    0.018137    0.020197    0.022302    0.022946    0.026943    0.028492
 Highest eigenvalues
    1.350586    1.538578    1.565777    1.867516    1.969595    1.989293
 

........................................................................
.............................. CYCLE    1 ..............................
........................................................................

 iter      E             dE          RMSdq      gap      omega  full diag
   1    -32.0475266 -0.320475E+02  0.910E-07    3.29       0.0  T
   2    -32.0475266 -0.284217E-13  0.516E-07    3.29   38020.4  T
   3    -32.0475266  0.426326E-13  0.269E-07    3.29   72788.3  T
     SCC iter.                  ...        0 min,  0.072 sec
     gradient                   ...        0 min,  0.002 sec
 * total energy  :   -31.5322561 Eh     change       -0.7105427E-14 Eh
   gradient norm :     0.0568025 Eh/α   predicted     0.0000000E+00 (-100.00%)
   displ. norm   :     0.5486911 α      lambda       -0.1718822E-01
   maximum displ.:     0.3428021 α      in ANC's #1, #5, #3, ...

........................................................................
.............................. CYCLE    2 ..............................
........................................................................

 iter      E             dE          RMSdq      gap      omega  full diag
   1    -32.0620260 -0.320620E+02  0.457E-01    3.53       0.0  T
   2    -32.0623550 -0.328989E-03  0.224E-01    3.57       1.0  T
   3    -32.0623761 -0.211292E-04  0.850E-02    3.61       1.0  T
   4    -32.0623882 -0.121186E-04  0.442E-02    3.60       1.0  T
   5    -32.0623983 -0.101036E-04  0.140E-02    3.60       1.4  T
   6    -32.0624019 -0.352047E-05  0.472E-03    3.60       4.2  T
   7    -32.0624019 -0.368148E-07  0.155E-03    3.60      12.6  T
   8    -32.0624019 -0.120538E-07  0.523E-04    3.60      37.5  T
   9    -32.0624019 -0.333125E-08  0.169E-04    3.60     115.7  T
  10    -32.0624019 -0.353722E-09  0.588E-05    3.60     333.8  T
  11    -32.0624019 -0.881073E-11  0.256E-05    3.60     764.7  T
  12    -32.0624019 -0.228795E-11  0.918E-06    3.60    2136.8  T
  13    -32.0624019 -0.447642E-12  0.415E-06    3.60    4721.1  T
     SCC iter.                  ...        0 min,  0.074 sec
     gradient                   ...        0 min,  0.002 sec
 * total energy  :   -31.5431282 Eh     change       -0.1087209E-01 Eh
   gradient norm :     0.0198536 Eh/α   predicted    -0.1118151E-01 (   2.85%)
   displ. norm   :     0.5291243 α      lambda       -0.5628617E-02
   maximum displ.:     0.3543317 α      in ANC's #1, #5, #8, ...

........................................................................
.............................. CYCLE    3 ..............................
........................................................................

 iter      E             dE          RMSdq      gap      omega  full diag
   1    -32.0660537 -0.320661E+02  0.156E-01    3.59       0.0  T
   2    -32.0660692 -0.154674E-04  0.889E-02    3.58       1.0  T
   3    -32.0660676  0.153506E-05  0.261E-02    3.58       1.0  T
   4    -32.0660710 -0.339068E-05  0.747E-03    3.58       2.6  T
   5    -32.0660716 -0.582573E-06  0.286E-03    3.58       6.9  T
   6    -32.0660717 -0.114773E-06  0.161E-03    3.58      12.2  T
   7    -32.0660717 -0.873225E-08  0.576E-04    3.58      34.0  T
   8    -32.0660717 -0.979554E-10  0.231E-04    3.58      84.8  T
   9    -32.0660717 -0.811490E-09  0.854E-05    3.58     229.5  T
  10    -32.0660717 -0.381561E-10  0.335E-05    3.58     585.6  T
  11    -32.0660717 -0.287770E-11  0.122E-05    3.58    1606.4  T
  12    -32.0660717 -0.125056E-11  0.596E-06    3.58    3288.7  T
  13    -32.0660717 -0.710543E-13  0.196E-06    3.58    9999.4  T
     SCC iter.                  ...        0 min,  0.074 sec
     gradient                   ...        0 min,  0.002 sec
 * total energy  :   -31.5473480 Eh     change       -0.4219863E-02 Eh
   gradient norm :     0.0104500 Eh/α   predicted    -0.3603282E-02 ( -14.61%)
   displ. norm   :     0.5253458 α      lambda       -0.3303845E-02
   maximum displ.:     0.3080094 α      in ANC's #1, #8, #5, ...

........................................................................
.............................. CYCLE    4 ..............................
........................................................................

 iter      E             dE          RMSdq      gap      omega  full diag
   1    -32.0653300 -0.320653E+02  0.150E-01    3.60       0.0  T
   2    -32.0653424 -0.124018E-04  0.859E-02    3.60       1.0  T
   3    -32.0653408  0.157044E-05  0.217E-02    3.61       1.0  T
   4    -32.0653434 -0.255481E-05  0.961E-03    3.61       2.0  T
   5    -32.0653442 -0.803980E-06  0.345E-03    3.61       5.7  T
   6    -32.0653444 -0.252803E-06  0.162E-03    3.61      12.1  T
   7    -32.0653444 -0.608557E-08  0.564E-04    3.61      34.8  T
   8    -32.0653444 -0.100016E-09  0.185E-04    3.61     105.8  T
   9    -32.0653444 -0.457270E-09  0.614E-05    3.61     319.5  T
  10    -32.0653444 -0.108784E-10  0.337E-05    3.61     581.3  T
  11    -32.0653444 -0.454747E-11  0.130E-05    3.61    1504.6  T
  12    -32.0653444 -0.326850E-12  0.392E-06    3.61    5004.8  T
  13    -32.0653444 -0.710543E-14  0.165E-06    3.61   11904.3  T
     SCC iter.                  ...        0 min,  0.074 sec
     gradient                   ...        0 min,  0.002 sec
 * total energy  :   -31.5497213 Eh     change       -0.2373309E-02 Eh
   gradient norm :     0.0090522 Eh/α   predicted    -0.2107833E-02 ( -11.19%)
   displ. norm   :     0.4416150 α      lambda       -0.1545316E-02
   maximum displ.:     0.2687872 α      in ANC's #1, #8, #5, ...

........................................................................
.............................. CYCLE    5 ..............................
........................................................................

 iter      E             dE          RMSdq      gap      omega  full diag
   1    -32.0668723 -0.320669E+02  0.111E-01    3.59       0.0  T
   2    -32.0668759 -0.358137E-05  0.654E-02    3.58       1.0  T
   3    -32.0668735  0.242346E-05  0.110E-02    3.58       1.8  T
   4    -32.0668761 -0.257007E-05  0.618E-03    3.58       3.2  T
   5    -32.0668767 -0.645475E-06  0.171E-03    3.58      11.5  T
   6    -32.0668767 -0.414864E-08  0.682E-04    3.58      28.8  T
   7    -32.0668767 -0.339951E-08  0.245E-04    3.58      80.0  T
   8    -32.0668767 -0.378037E-09  0.112E-04    3.58     175.8  T
   9    -32.0668767 -0.701235E-10  0.343E-05    3.58     572.5  T
  10    -32.0668767 -0.656541E-11  0.149E-05    3.58    1320.4  T
  11    -32.0668767 -0.108713E-11  0.617E-06    3.58    3179.9  T
  12    -32.0668767 -0.127898E-12  0.187E-06    3.58   10483.3  T
     SCC iter.                  ...        0 min,  0.074 sec
     gradient                   ...        0 min,  0.002 sec
 * total energy  :   -31.5508074 Eh     change       -0.1086035E-02 Eh
   gradient norm :     0.0073357 Eh/α   predicted    -0.9233486E-03 ( -14.98%)
   displ. norm   :     0.3424681 α      lambda       -0.6924742E-03
   maximum displ.:     0.2007122 α      in ANC's #8, #1, #5, ...

........................................................................
.............................. CYCLE    6 ..............................
........................................................................

 iter      E             dE          RMSdq      gap      omega  full diag
   1    -32.0691027 -0.320691E+02  0.829E-02    3.58       0.0  T
   2    -32.0691048 -0.207054E-05  0.472E-02    3.58       1.0  T
   3    -32.0691043  0.515672E-06  0.833E-03    3.58       2.4  T
   4    -32.0691049 -0.599732E-06  0.386E-03    3.58       5.1  T
   5    -32.0691051 -0.239205E-06  0.137E-03    3.58      14.3  T
   6    -32.0691051 -0.128125E-07  0.622E-04    3.58      31.5  T
   7    -32.0691051 -0.339647E-09  0.186E-04    3.58     105.5  T
   8    -32.0691051 -0.135095E-09  0.647E-05    3.58     303.0  T
   9    -32.0691051 -0.286207E-10  0.258E-05    3.58     761.2  T
  10    -32.0691051 -0.257927E-11  0.115E-05    3.58    1700.4  T
  11    -32.0691051 -0.130740E-11  0.437E-06    3.58    4484.4  T
  12    -32.0691051 -0.994760E-13  0.182E-06    3.58   10784.8  T
     SCC iter.                  ...        0 min,  0.074 sec
     gradient                   ...        0 min,  0.002 sec
 * total energy  :   -31.5513005 Eh     change       -0.4931083E-03 Eh
   gradient norm :     0.0052022 Eh/α   predicted    -0.3868531E-03 ( -21.55%)
   displ. norm   :     0.2974379 α      lambda       -0.4103969E-03
   maximum displ.:     0.1552082 α      in ANC's #4, #8, #1, ...

........................................................................
.............................. CYCLE    7 ..............................
........................................................................

 iter      E             dE          RMSdq      gap      omega  full diag
   1    -32.0717469 -0.320717E+02  0.756E-02    3.58       0.0  T
   2    -32.0717488 -0.187284E-05  0.429E-02    3.58       1.0  T
   3    -32.0717482  0.615206E-06  0.983E-03    3.58       2.0  T
   4    -32.0717490 -0.857537E-06  0.282E-03    3.58       6.9  T
   5    -32.0717491 -0.637388E-07  0.134E-03    3.58      14.6  T
   6    -32.0717491 -0.240815E-07  0.528E-04    3.58      37.2  T
   7    -32.0717491 -0.260130E-09  0.191E-04    3.58     102.9  T
   8    -32.0717491 -0.175731E-09  0.539E-05    3.58     363.7  T
   9    -32.0717491 -0.145590E-10  0.222E-05    3.58     883.7  T
  10    -32.0717491 -0.544276E-11  0.876E-06    3.58    2239.5  T
  11    -32.0717491 -0.333955E-12  0.303E-06    3.58    6475.9  T
     SCC iter.                  ...        0 min,  0.074 sec
     gradient                   ...        0 min,  0.002 sec
 * total energy  :   -31.5516077 Eh     change       -0.3072326E-03 Eh
   gradient norm :     0.0041826 Eh/α   predicted    -0.2233525E-03 ( -27.30%)
   displ. norm   :     0.3572868 α      lambda       -0.3993164E-03
   maximum displ.:     0.2447133 α      in ANC's #4, #8, #3, ...

........................................................................
.............................. CYCLE    8 ..............................
........................................................................

 iter      E             dE          RMSdq      gap      omega  full diag
   1    -32.0735626 -0.320736E+02  0.908E-02    3.58       0.0  T
   2    -32.0735644 -0.182823E-05  0.521E-02    3.58       1.0  T
   3    -32.0735635  0.890924E-06  0.110E-02    3.58       1.8  T
   4    -32.0735647 -0.119995E-05  0.263E-03    3.58       7.5  T
   5    -32.0735648 -0.430090E-07  0.127E-03    3.58      15.4  T
   6    -32.0735648 -0.238639E-07  0.515E-04    3.58      38.1  T
   7    -32.0735648 -0.305810E-09  0.186E-04    3.58     105.2  T
   8    -32.0735648 -0.211251E-09  0.428E-05    3.58     457.8  T
   9    -32.0735648 -0.564171E-11  0.214E-05    3.58     915.6  T
  10    -32.0735648 -0.472511E-11  0.678E-06    3.58    2892.9  T
  11    -32.0735648 -0.163425E-12  0.215E-06    3.58    9101.0  T
     SCC iter.                  ...        0 min,  0.073 sec
     gradient                   ...        0 min,  0.002 sec
 * total energy  :   -31.5519268 Eh     change       -0.3190579E-03 Eh
   gradient norm :     0.0066377 Eh/α   predicted    -0.2251474E-03 ( -29.43%)
   displ. norm   :     0.3422353 α      lambda       -0.4087782E-03
   maximum displ.:     0.2588845 α      in ANC's #4, #3, #6, ...

........................................................................
.............................. CYCLE    9 ..............................
........................................................................

 iter      E             dE          RMSdq      gap      omega  full diag
   1    -32.0743579 -0.320744E+02  0.864E-02    3.59       0.0  T
   2    -32.0743589 -0.996234E-06  0.502E-02    3.59       1.0  T
   3    -32.0743582  0.714678E-06  0.876E-03    3.59       2.2  T
   4    -32.0743591 -0.934247E-06  0.208E-03    3.59       9.4  T
   5    -32.0743592 -0.335527E-07  0.981E-04    3.59      20.0  T
   6    -32.0743592 -0.135879E-07  0.398E-04    3.59      49.3  T
   7    -32.0743592 -0.288253E-09  0.125E-04    3.59     157.0  T
   8    -32.0743592 -0.798863E-10  0.386E-05    3.59     508.1  T
   9    -32.0743592 -0.183320E-11  0.163E-05    3.59    1203.6  T
  10    -32.0743592 -0.386535E-11  0.404E-06    3.59    4853.5  T
  11    -32.0743592 -0.568434E-13  0.132E-06    3.59   14854.7  T
     SCC iter.                  ...        0 min,  0.073 sec
     gradient                   ...        0 min,  0.002 sec
 * total energy  :   -31.5522881 Eh     change       -0.3613357E-03 Eh
   gradient norm :     0.0083372 Eh/α   predicted    -0.2283325E-03 ( -36.81%)
   displ. norm   :     0.4149558 α      lambda       -0.5655647E-03
   maximum displ.:     0.3170837 α      in ANC's #4, #3, #6, ...

........................................................................
.............................. CYCLE   10 ..............................
........................................................................

 iter      E             dE          RMSdq      gap      omega  full diag
   1    -32.0737271 -0.320737E+02  0.103E-01    3.60       0.0  T
   2    -32.0737281 -0.998648E-06  0.602E-02    3.60       1.0  T
   3    -32.0737274  0.663702E-06  0.854E-03    3.60       2.3  T
   4    -32.0737283 -0.908073E-06  0.233E-03    3.60       8.4  T
   5    -32.0737284 -0.552286E-07  0.104E-03    3.60      18.9  T
   6    -32.0737284 -0.125430E-07  0.460E-04    3.60      42.6  T
   7    -32.0737284 -0.791061E-09  0.103E-04    3.60     191.2  T
   8    -32.0737284 -0.517417E-10  0.512E-05    3.60     383.3  T
   9    -32.0737284 -0.184954E-10  0.138E-05    3.60    1423.0  T
  10    -32.0737284 -0.218847E-11  0.474E-06    3.60    4133.4  T
  11    -32.0737284 -0.198952E-12  0.250E-06    3.60    7829.2  T
     SCC iter.                  ...        0 min,  0.073 sec
     gradient                   ...        0 min,  0.002 sec
 * total energy  :   -31.5527780 Eh     change       -0.4898488E-03 Eh
   gradient norm :     0.0086184 Eh/α   predicted    -0.3314750E-03 ( -32.33%)
   displ. norm   :     0.5363021 α      lambda       -0.6740900E-03
   maximum displ.:     0.4099171 α      in ANC's #4, #3, #6, ...

........................................................................
.............................. CYCLE   11 ..............................
........................................................................

 iter      E             dE          RMSdq      gap      omega  full diag
   1    -32.0713135 -0.320713E+02  0.131E-01    3.62       0.0  T
   2    -32.0713150 -0.157713E-05  0.770E-02    3.62       1.0  T
   3    -32.0713139  0.110211E-05  0.110E-02    3.62       1.8  T
   4    -32.0713155 -0.152496E-05  0.296E-03    3.62       6.6  T
   5    -32.0713155 -0.840338E-07  0.136E-03    3.62      14.4  T
   6    -32.0713156 -0.198792E-07  0.568E-04    3.62      34.5  T
   7    -32.0713156 -0.183557E-08  0.145E-04    3.62     135.3  T
   8    -32.0713156 -0.145192E-09  0.692E-05    3.62     283.6  T
   9    -32.0713156 -0.213021E-10  0.181E-05    3.62    1084.5  T
  10    -32.0713156 -0.421352E-11  0.717E-06    3.62    2736.6  T
  11    -32.0713156 -0.447642E-12  0.362E-06    3.62    5410.4  T
     SCC iter.                  ...        0 min,  0.074 sec
     gradient                   ...        0 min,  0.002 sec
 * total energy  :   -31.5533136 Eh     change       -0.5356467E-03 Eh
   gradient norm :     0.0092552 Eh/α   predicted    -0.4339890E-03 ( -18.98%)
   displ. norm   :     0.5132333 α      lambda       -0.6058578E-03
   maximum displ.:     0.3928993 α      in ANC's #4, #3, #6, ...

........................................................................
.............................. CYCLE   12 ..............................
........................................................................

 iter      E             dE          RMSdq      gap      omega  full diag
   1    -32.0708603 -0.320709E+02  0.125E-01    3.64       0.0  T
   2    -32.0708621 -0.171368E-05  0.737E-02    3.64       1.0  T
   3    -32.0708609  0.116574E-05  0.108E-02    3.64       1.8  T
   4    -32.0708625 -0.156611E-05  0.278E-03    3.64       7.1  T
   5    -32.0708625 -0.657435E-07  0.137E-03    3.64      14.3  T
   6    -32.0708626 -0.266794E-07  0.519E-04    3.64      37.8  T
   7    -32.0708626 -0.828585E-09  0.189E-04    3.64     103.8  T
   8    -32.0708626 -0.333117E-09  0.642E-05    3.64     305.6  T
   9    -32.0708626 -0.751044E-11  0.192E-05    3.64    1020.9  T
  10    -32.0708626 -0.285638E-11  0.737E-06    3.64    2662.7  T
  11    -32.0708626 -0.589750E-12  0.349E-06    3.64    5623.1  T
     SCC iter.                  ...        0 min,  0.073 sec
     gradient                   ...        0 min,  0.002 sec
 * total energy  :   -31.5537675 Eh     change       -0.4539385E-03 Eh
   gradient norm :     0.0082205 Eh/α   predicted    -0.3827237E-03 ( -15.69%)
   displ. norm   :     0.4783000 α      lambda       -0.5030652E-03
   maximum displ.:     0.3516678 α      in ANC's #4, #3, #6, ...

........................................................................
.............................. CYCLE   13 ..............................
........................................................................

 iter      E             dE          RMSdq      gap      omega  full diag
   1    -32.0700569 -0.320701E+02  0.114E-01    3.65       0.0  T
   2    -32.0700583 -0.140040E-05  0.679E-02    3.65       1.0  T
   3    -32.0700569  0.145408E-05  0.107E-02    3.65       1.8  T
   4    -32.0700586 -0.177231E-05  0.291E-03    3.65       6.8  T
   5    -32.0700588 -0.127771E-06  0.127E-03    3.65      15.5  T
   6    -32.0700588 -0.163462E-07  0.435E-04    3.65      45.1  T
   7    -32.0700588 -0.224340E-09  0.133E-04    3.65     147.0  T
   8    -32.0700588 -0.103952E-09  0.490E-05    3.65     400.1  T
   9    -32.0700588 -0.833467E-11  0.205E-05    3.65     956.0  T
  10    -32.0700588 -0.203215E-11  0.650E-06    3.65    3016.5  T
  11    -32.0700588 -0.348166E-12  0.252E-06    3.65    7770.2  T
     SCC iter.                  ...        0 min,  0.074 sec
     gradient                   ...        0 min,  0.002 sec
 * total energy  :   -31.5541604 Eh     change       -0.3929026E-03 Eh
   gradient norm :     0.0080744 Eh/α   predicted    -0.3090774E-03 ( -21.33%)
   displ. norm   :     0.4462773 α      lambda       -0.8224077E-03
   maximum displ.:     0.2858836 α      in ANC's #4, #3, #20, ...

........................................................................
.............................. CYCLE   14 ..............................
........................................................................

 iter      E             dE          RMSdq      gap      omega  full diag
   1    -32.0795550 -0.320796E+02  0.141E-01    3.66       0.0  T
   2    -32.0795625 -0.756679E-05  0.770E-02    3.66       1.0  T
   3    -32.0795615  0.105336E-05  0.263E-02    3.66       1.0  T
   4    -32.0795637 -0.218638E-05  0.596E-03    3.66       3.3  T
   5    -32.0795636  0.796354E-07  0.400E-03    3.66       4.9  T
   6    -32.0795638 -0.164689E-06  0.148E-03    3.66      13.3  T
   7    -32.0795638 -0.619569E-08  0.312E-04    3.66      62.9  T
   8    -32.0795638 -0.196131E-09  0.123E-04    3.66     160.0  T
   9    -32.0795638 -0.952269E-10  0.461E-05    3.66     425.6  T
  10    -32.0795638 -0.817124E-11  0.174E-05    3.66    1125.9  T
  11    -32.0795638 -0.282085E-11  0.443E-06    3.66    4429.9  T
  12    -32.0795638 -0.852651E-13  0.131E-06    3.66   14964.8  T
     SCC iter.                  ...        0 min,  0.076 sec
     gradient                   ...        0 min,  0.002 sec
 * total energy  :   -31.5543681 Eh     change       -0.2076896E-03 Eh
   gradient norm :     0.0131634 Eh/α   predicted    -0.4931015E-03 ( 137.42%)
   displ. norm   :     0.4843960 α      lambda       -0.7866760E-03
   maximum displ.:     0.3409634 α      in ANC's #4, #3, #6, ...

........................................................................
.............................. CYCLE   15 ..............................
........................................................................

 iter      E             dE          RMSdq      gap      omega  full diag
   1    -32.0732411 -0.320732E+02  0.132E-01    3.66       0.0  T
   2    -32.0732462 -0.514430E-05  0.753E-02    3.66       1.0  T
   3    -32.0732449  0.136448E-05  0.195E-02    3.66       1.0  T
   4    -32.0732472 -0.229824E-05  0.471E-03    3.66       4.2  T
   5    -32.0732472 -0.516091E-07  0.247E-03    3.66       7.9  T
   6    -32.0732473 -0.762356E-07  0.103E-03    3.66      19.0  T
   7    -32.0732473 -0.474347E-08  0.261E-04    3.66      75.0  T
   8    -32.0732473 -0.198803E-09  0.911E-05    3.66     215.4  T
   9    -32.0732473 -0.332250E-10  0.442E-05    3.66     443.8  T
  10    -32.0732473 -0.608935E-11  0.204E-05    3.66     961.1  T
  11    -32.0732473 -0.243716E-11  0.575E-06    3.66    3413.0  T
  12    -32.0732473 -0.106581E-12  0.169E-06    3.66   11582.8  T
     SCC iter.                  ...        0 min,  0.075 sec
     gradient                   ...        0 min,  0.002 sec
 * total energy  :   -31.5547622 Eh     change       -0.3940252E-03 Eh
   gradient norm :     0.0077128 Eh/α   predicted    -0.4856331E-03 (  23.25%)
   displ. norm   :     0.0607976 α      lambda       -0.1275094E-03
   maximum displ.:     0.0296023 α      in ANC's #3, #4, #5, ...

........................................................................
.............................. CYCLE   16 ..............................
........................................................................

 iter      E             dE          RMSdq      gap      omega  full diag
   1    -32.0743734 -0.320744E+02  0.252E-02    3.66       0.0  T
   2    -32.0743738 -0.354824E-06  0.139E-02    3.66       1.4  T
   3    -32.0743737  0.371194E-07  0.416E-03    3.66       4.7  T
   4    -32.0743738 -0.663494E-07  0.119E-03    3.66      16.5  T
   5    -32.0743738 -0.148189E-07  0.663E-04    3.66      29.6  T
   6    -32.0743738 -0.776342E-08  0.225E-04    3.66      87.0  T
   7    -32.0743738 -0.843627E-10  0.715E-05    3.66     274.2  T
   8    -32.0743738 -0.154543E-10  0.300E-05    3.66     653.1  T
   9    -32.0743738 -0.972733E-11  0.107E-05    3.66    1834.0  T
  10    -32.0743738 -0.781597E-12  0.384E-06    3.66    5112.2  T
  11    -32.0743738 -0.781597E-13  0.131E-06    3.66   14928.4  T
     SCC iter.                  ...        0 min,  0.080 sec
     gradient                   ...        0 min,  0.002 sec
 * total energy  :   -31.5548645 Eh     change       -0.1023678E-03 Eh
   gradient norm :     0.0047039 Eh/α   predicted    -0.6399326E-04 ( -37.49%)
   displ. norm   :     0.3128296 α      lambda       -0.2332835E-03
   maximum displ.:     0.2090372 α      in ANC's #4, #3, #6, ...

........................................................................
.............................. CYCLE   17 ..............................
........................................................................

 iter      E             dE          RMSdq      gap      omega  full diag
   1    -32.0754899 -0.320755E+02  0.900E-02    3.65       0.0  T
   2    -32.0754907 -0.792926E-06  0.520E-02    3.65       1.0  T
   3    -32.0754897  0.976238E-06  0.760E-03    3.65       2.6  T
   4    -32.0754909 -0.121408E-05  0.239E-03    3.65       8.2  T
   5    -32.0754910 -0.589127E-07  0.993E-04    3.65      19.8  T
   6    -32.0754910 -0.720209E-08  0.391E-04    3.65      50.2  T
   7    -32.0754910 -0.270262E-09  0.135E-04    3.65     145.0  T
   8    -32.0754910 -0.179220E-09  0.585E-05    3.65     335.4  T
   9    -32.0754910 -0.263469E-10  0.197E-05    3.65     994.6  T
  10    -32.0754910 -0.201794E-11  0.646E-06    3.65    3036.2  T
  11    -32.0754910 -0.405009E-12  0.179E-06    3.65   10950.0  T
     SCC iter.                  ...        0 min,  0.078 sec
     gradient                   ...        0 min,  0.002 sec
 * total energy  :   -31.5550009 Eh     change       -0.1363485E-03 Eh
   gradient norm :     0.0039345 Eh/α   predicted    -0.1280610E-03 (  -6.08%)
   displ. norm   :     0.1964262 α      lambda       -0.1041485E-03
   maximum displ.:     0.1316571 α      in ANC's #4, #3, #6, ...

........................................................................
.............................. CYCLE   18 ..............................
........................................................................

 iter      E             dE          RMSdq      gap      omega  full diag
   1    -32.0762974 -0.320763E+02  0.532E-02    3.65       0.0  T
   2    -32.0762986 -0.118849E-05  0.308E-02    3.65       1.0  T
   3    -32.0762981  0.476421E-06  0.919E-03    3.65       2.1  T
   4    -32.0762988 -0.708473E-06  0.163E-03    3.65      12.0  T
   5    -32.0762988 -0.155001E-07  0.915E-04    3.65      21.4  T
   6    -32.0762988 -0.130400E-07  0.345E-04    3.65      56.8  T
   7    -32.0762988 -0.259384E-09  0.142E-04    3.65     137.6  T
   8    -32.0762988 -0.152198E-10  0.392E-05    3.65     499.9  T
   9    -32.0762988 -0.153619E-10  0.138E-05    3.65    1419.5  T
  10    -32.0762988 -0.202505E-11  0.554E-06    3.65    3539.4  T
  11    -32.0762988 -0.341061E-12  0.200E-06    3.65    9792.2  T
     SCC iter.                  ...        0 min,  0.077 sec
     gradient                   ...        0 min,  0.002 sec
 * total energy  :   -31.5550464 Eh     change       -0.4552353E-04 Eh
   gradient norm :     0.0049797 Eh/α   predicted    -0.5408689E-04 (  18.81%)
   displ. norm   :     0.1088518 α      lambda       -0.8915973E-04
   maximum displ.:     0.0716154 α      in ANC's #2, #4, #1, ...

........................................................................
.............................. CYCLE   19 ..............................
........................................................................

 iter      E             dE          RMSdq      gap      omega  full diag
   1    -32.0777024 -0.320777E+02  0.349E-02    3.65       0.0  T
   2    -32.0777026 -0.228406E-06  0.201E-02    3.65       1.0  T
   3    -32.0777026  0.140566E-07  0.355E-03    3.65       5.5  T
   4    -32.0777027 -0.586900E-07  0.782E-04    3.65      25.1  T
   5    -32.0777027  0.303316E-09  0.463E-04    3.65      42.3  T
   6    -32.0777027 -0.258952E-08  0.204E-04    3.65      96.0  T
   7    -32.0777027 -0.175959E-09  0.497E-05    3.65     394.5  T
   8    -32.0777027 -0.172591E-10  0.246E-05    3.65     796.1  T
   9    -32.0777027 -0.140687E-11  0.769E-06    3.65    2551.7  T
  10    -32.0777027 -0.376588E-12  0.279E-06    3.65    7040.6  T
     SCC iter.                  ...        0 min,  0.077 sec
     gradient                   ...        0 min,  0.002 sec
 * total energy  :   -31.5551125 Eh     change       -0.6606201E-04 Eh
   gradient norm :     0.0038353 Eh/α   predicted    -0.4511273E-04 ( -31.71%)
   displ. norm   :     0.3299479 α      lambda       -0.1528699E-03
   maximum displ.:     0.2076851 α      in ANC's #4, #2, #3, ...

........................................................................
.............................. CYCLE   20 ..............................
........................................................................

 iter      E             dE          RMSdq      gap      omega  full diag
   1    -32.0760257 -0.320760E+02  0.872E-02    3.66       0.0  T
   2    -32.0760266 -0.919736E-06  0.511E-02    3.66       1.0  T
   3    -32.0760259  0.736894E-06  0.735E-03    3.66       2.7  T
   4    -32.0760268 -0.918127E-06  0.256E-03    3.66       7.6  T
   5    -32.0760269 -0.984252E-07  0.869E-04    3.66      22.6  T
   6    -32.0760269 -0.337688E-08  0.387E-04    3.66      50.7  T
   7    -32.0760269 -0.107806E-08  0.131E-04    3.66     150.2  T
   8    -32.0760269 -0.980265E-10  0.473E-05    3.66     414.2  T
   9    -32.0760269 -0.147651E-10  0.164E-05    3.66    1196.7  T
  10    -32.0760269 -0.142109E-11  0.627E-06    3.66    3127.7  T
  11    -32.0760269 -0.127898E-12  0.238E-06    3.66    8231.8  T
     SCC iter.                  ...        0 min,  0.077 sec
     gradient                   ...        0 min,  0.002 sec
 * total energy  :   -31.5551993 Eh     change       -0.8686603E-04 Eh
   gradient norm :     0.0048460 Eh/α   predicted    -0.8475979E-04 (  -2.42%)
   displ. norm   :     0.2215663 α      lambda       -0.1283325E-03
   maximum displ.:     0.1843738 α      in ANC's #2, #5, #9, ...
 * RMSD in coord.:     1.0559209 α      energy gain  -0.2294325E-01 Eh

generating ANC from model Hessian ...
Using Lindh-Hessian (1995)
 Shifting diagonal of input Hessian by   9.194665063452684E-003
 Lowest  eigenvalues of input Hessian
    0.000000    0.000000    0.000000    0.000000    0.000000    0.000000
    0.010000    0.010252    0.010609    0.011273    0.012225    0.012434
    0.015158    0.017200    0.018510    0.019370    0.024227    0.024374
 Highest eigenvalues
    1.364910    1.552184    1.577500    1.884004    1.989743    2.006647
 

........................................................................
.............................. CYCLE   21 ..............................
........................................................................

 iter      E             dE          RMSdq      gap      omega  full diag
   1    -32.0772378 -0.320772E+02  0.734E-02    3.66       0.0  T
   2    -32.0772382 -0.387980E-06  0.428E-02    3.66       1.0  T
   3    -32.0772382 -0.134122E-07  0.361E-03    3.66       5.4  T
   4    -32.0772383 -0.905578E-07  0.118E-03    3.66      16.6  T
   5    -32.0772383 -0.148389E-08  0.528E-04    3.66      37.2  T
   6    -32.0772383 -0.169511E-08  0.232E-04    3.66      84.5  T
   7    -32.0772383 -0.176570E-09  0.624E-05    3.66     314.4  T
   8    -32.0772383 -0.271925E-10  0.248E-05    3.66     790.0  T
   9    -32.0772383 -0.367351E-11  0.898E-06    3.66    2185.0  T
  10    -32.0772383 -0.262901E-12  0.496E-06    3.66    3952.2  T
     SCC iter.                  ...        0 min,  0.075 sec
     gradient                   ...        0 min,  0.002 sec
 * total energy  :   -31.5552762 Eh     change       -0.7689083E-04 Eh
   gradient norm :     0.0045702 Eh/α   predicted     0.0000000E+00 (-100.00%)
   displ. norm   :     0.0515514 α      lambda       -0.7106427E-04
   maximum displ.:     0.0243677 α      in ANC's #4, #5, #7, ...

........................................................................
.............................. CYCLE   22 ..............................
........................................................................

 iter      E             dE          RMSdq      gap      omega  full diag
   1    -32.0766802 -0.320767E+02  0.297E-02    3.66       0.0  T
   2    -32.0766804 -0.186957E-06  0.173E-02    3.66       1.1  T
   3    -32.0766803  0.126667E-06  0.328E-03    3.66       6.0  T
   4    -32.0766804 -0.166720E-06  0.113E-03    3.66      17.4  T
   5    -32.0766804 -0.741192E-08  0.548E-04    3.66      35.8  T
   6    -32.0766804 -0.268324E-08  0.169E-04    3.66     116.3  T
   7    -32.0766804 -0.693703E-10  0.596E-05    3.66     329.2  T
   8    -32.0766804 -0.575326E-10  0.148E-05    3.66    1324.4  T
   9    -32.0766804 -0.845546E-12  0.625E-06    3.66    3139.4  T
  10    -32.0766804 -0.362377E-12  0.247E-06    3.66    7938.4  T
     SCC iter.                  ...        0 min,  0.074 sec
     gradient                   ...        0 min,  0.002 sec
 * total energy  :   -31.5553281 Eh     change       -0.5190450E-04 Eh
   gradient norm :     0.0018005 Eh/α   predicted    -0.3564125E-04 ( -31.33%)
   displ. norm   :     0.1431210 α      lambda       -0.5633033E-04
   maximum displ.:     0.0741317 α      in ANC's #4, #5, #2, ...

........................................................................
.............................. CYCLE   23 ..............................
........................................................................

 iter      E             dE          RMSdq      gap      omega  full diag
   1    -32.0757876 -0.320758E+02  0.617E-02    3.65       0.0  T
   2    -32.0757879 -0.294874E-06  0.361E-02    3.65       1.0  T
   3    -32.0757877  0.197618E-06  0.390E-03    3.65       5.0  T
   4    -32.0757879 -0.281939E-06  0.142E-03    3.65      13.9  T
   5    -32.0757880 -0.104957E-07  0.744E-04    3.65      26.4  T
   6    -32.0757880 -0.355912E-08  0.204E-04    3.65      95.9  T
   7    -32.0757880 -0.144894E-09  0.778E-05    3.65     252.2  T
   8    -32.0757880 -0.101473E-09  0.185E-05    3.65    1059.6  T
   9    -32.0757880 -0.176925E-11  0.799E-06    3.65    2454.4  T
  10    -32.0757880 -0.575540E-12  0.354E-06    3.65    5543.9  T
     SCC iter.                  ...        0 min,  0.074 sec
     gradient                   ...        0 min,  0.002 sec
 * total energy  :   -31.5553733 Eh     change       -0.4513740E-04 Eh
   gradient norm :     0.0030023 Eh/α   predicted    -0.2842392E-04 ( -37.03%)
   displ. norm   :     0.0595336 α      lambda       -0.2616396E-04
   maximum displ.:     0.0317943 α      in ANC's #2, #4, #5, ...

........................................................................
.............................. CYCLE   24 ..............................
........................................................................

 iter      E             dE          RMSdq      gap      omega  full diag
   1    -32.0759153 -0.320759E+02  0.222E-02    3.65       0.0  T
   2    -32.0759153 -0.568698E-07  0.129E-02    3.65       1.5  T
   3    -32.0759153 -0.933085E-10  0.125E-03    3.65      15.7  T
   4    -32.0759153 -0.769693E-08  0.435E-04    3.65      45.1  T
   5    -32.0759154 -0.177015E-08  0.155E-04    3.65     126.4  T
   6    -32.0759154 -0.197993E-09  0.879E-05    3.65     223.1  T
   7    -32.0759154 -0.354063E-10  0.186E-05    3.65    1052.9  T
   8    -32.0759154 -0.449063E-11  0.715E-06    3.65    2743.4  T
   9    -32.0759154 -0.490274E-12  0.284E-06    3.65    6908.2  T
     SCC iter.                  ...        0 min,  0.073 sec
     gradient                   ...        0 min,  0.002 sec
 * total energy  :   -31.5553968 Eh     change       -0.2354510E-04 Eh
   gradient norm :     0.0025309 Eh/α   predicted    -0.1312850E-04 ( -44.24%)
   displ. norm   :     0.1720162 α      lambda       -0.6784113E-04
   maximum displ.:     0.0917265 α      in ANC's #2, #4, #5, ...

........................................................................
.............................. CYCLE   25 ..............................
........................................................................

 iter      E             dE          RMSdq      gap      omega  full diag
   1    -32.0762358 -0.320762E+02  0.587E-02    3.64       0.0  T
   2    -32.0762362 -0.394807E-06  0.341E-02    3.64       1.0  T
   3    -32.0762362 -0.873298E-08  0.302E-03    3.64       6.5  T
   4    -32.0762363 -0.444511E-07  0.104E-03    3.64      18.9  T
   5    -32.0762363 -0.128592E-07  0.401E-04    3.64      48.9  T
   6    -32.0762363 -0.102082E-08  0.220E-04    3.64      89.0  T
   7    -32.0762363 -0.169912E-09  0.534E-05    3.64     367.2  T
   8    -32.0762363 -0.672173E-10  0.159E-05    3.64    1232.5  T
   9    -32.0762363 -0.184031E-11  0.682E-06    3.64    2875.3  T
  10    -32.0762363 -0.184741E-12  0.280E-06    3.64    6994.6  T
     SCC iter.                  ...        0 min,  0.074 sec
     gradient                   ...        0 min,  0.002 sec
 * total energy  :   -31.5554448 Eh     change       -0.4802765E-04 Eh
   gradient norm :     0.0013767 Eh/α   predicted    -0.3492637E-04 ( -27.28%)
   displ. norm   :     0.2227130 α      lambda       -0.3062451E-04
   maximum displ.:     0.1215028 α      in ANC's #2, #4, #5, ...

........................................................................
.............................. CYCLE   26 ..............................
........................................................................

 iter      E             dE          RMSdq      gap      omega  full diag
   1    -32.0760087 -0.320760E+02  0.742E-02    3.64       0.0  T
   2    -32.0760093 -0.615560E-06  0.431E-02    3.64       1.0  T
   3    -32.0760093 -0.348894E-07  0.382E-03    3.65       5.1  T
   4    -32.0760094 -0.449856E-07  0.151E-03    3.65      13.0  T
   5    -32.0760094 -0.245004E-07  0.555E-04    3.64      35.3  T
   6    -32.0760094 -0.187692E-08  0.259E-04    3.64      75.9  T
   7    -32.0760094 -0.189530E-09  0.712E-05    3.64     275.6  T
   8    -32.0760094 -0.505622E-10  0.260E-05    3.64     753.8  T
   9    -32.0760094 -0.608935E-11  0.813E-06    3.64    2413.3  T
  10    -32.0760094 -0.731859E-12  0.320E-06    3.64    6121.8  T
     SCC iter.                  ...        0 min,  0.074 sec
     gradient                   ...        0 min,  0.002 sec
 * total energy  :   -31.5554698 Eh     change       -0.2501890E-04 Eh
   gradient norm :     0.0022958 Eh/α   predicted    -0.1565171E-04 ( -37.44%)
   displ. norm   :     0.0514356 α      lambda       -0.1511199E-04
   maximum displ.:     0.0299637 α      in ANC's #2, #1, #3, ...

........................................................................
.............................. CYCLE   27 ..............................
........................................................................

 iter      E             dE          RMSdq      gap      omega  full diag
   1    -32.0765534 -0.320766E+02  0.188E-02    3.64       0.0  T
   2    -32.0765535 -0.698459E-07  0.108E-02    3.64       1.8  T
   3    -32.0765535 -0.155546E-08  0.125E-03    3.64      15.7  T
   4    -32.0765535 -0.440840E-08  0.535E-04    3.64      36.7  T
   5    -32.0765535 -0.407299E-08  0.215E-04    3.64      91.2  T
   6    -32.0765535 -0.539742E-09  0.905E-05    3.64     216.7  T
   7    -32.0765535 -0.112337E-10  0.339E-05    3.64     579.1  T
   8    -32.0765535 -0.673595E-11  0.868E-06    3.64    2259.1  T
   9    -32.0765535 -0.144951E-11  0.316E-06    3.64    6212.5  T
     SCC iter.                  ...        0 min,  0.075 sec
     gradient                   ...        0 min,  0.002 sec
 * total energy  :   -31.5554819 Eh     change       -0.1209287E-04 Eh
   gradient norm :     0.0013522 Eh/α   predicted    -0.7576352E-05 ( -37.35%)
   displ. norm   :     0.1343173 α      lambda       -0.1865379E-04
   maximum displ.:     0.0785213 α      in ANC's #1, #2, #3, ...

........................................................................
.............................. CYCLE   28 ..............................
........................................................................

 iter      E             dE          RMSdq      gap      omega  full diag
   1    -32.0770542 -0.320771E+02  0.489E-02    3.64       0.0  T
   2    -32.0770543 -0.155368E-06  0.287E-02    3.64       1.0  T
   3    -32.0770542  0.964343E-07  0.275E-03    3.64       7.1  T
   4    -32.0770544 -0.137695E-06  0.971E-04    3.64      20.2  T
   5    -32.0770544 -0.125001E-07  0.424E-04    3.64      46.2  T
   6    -32.0770544 -0.481002E-09  0.196E-04    3.64      99.9  T
   7    -32.0770544 -0.110198E-09  0.479E-05    3.64     409.8  T
   8    -32.0770544 -0.385825E-10  0.142E-05    3.64    1379.9  T
   9    -32.0770544 -0.289191E-11  0.527E-06    3.64    3719.8  T
  10    -32.0770544 -0.277112E-12  0.245E-06    3.64    8011.3  T
     SCC iter.                  ...        0 min,  0.074 sec
     gradient                   ...        0 min,  0.002 sec
 * total energy  :   -31.5554993 Eh     change       -0.1740770E-04 Eh
   gradient norm :     0.0011158 Eh/α   predicted    -0.9406071E-05 ( -45.97%)
   displ. norm   :     0.0930395 α      lambda       -0.8088310E-05
   maximum displ.:     0.0598820 α      in ANC's #1, #2, #3, ...

........................................................................
.............................. CYCLE   29 ..............................
........................................................................

 iter      E             dE          RMSdq      gap      omega  full diag
   1    -32.0766633 -0.320767E+02  0.335E-02    3.64       0.0  T
   2    -32.0766634 -0.840217E-07  0.196E-02    3.64       1.0  T
   3    -32.0766633  0.537611E-07  0.190E-03    3.64      10.3  T
   4    -32.0766634 -0.725774E-07  0.731E-04    3.64      26.8  T
   5    -32.0766634 -0.693316E-08  0.261E-04    3.64      75.3  T
   6    -32.0766634 -0.131692E-09  0.110E-04    3.64     178.2  T
   7    -32.0766634 -0.249187E-10  0.455E-05    3.64     431.2  T
   8    -32.0766634 -0.144382E-10  0.119E-05    3.64    1647.6  T
   9    -32.0766634 -0.345324E-11  0.333E-06    3.64    5884.5  T
  10    -32.0766634 -0.568434E-13  0.135E-06    3.64   14519.0  T
     SCC iter.                  ...        0 min,  0.074 sec
     gradient                   ...        0 min,  0.002 sec
 * total energy  :   -31.5555091 Eh     change       -0.9702754E-05 Eh
   gradient norm :     0.0008669 Eh/α   predicted    -0.4066875E-05 ( -58.09%)
   displ. norm   :     0.0444345 α      lambda       -0.6581036E-05
   maximum displ.:     0.0387927 α      in ANC's #1, #2, #4, ...

........................................................................
.............................. CYCLE   30 ..............................
........................................................................

 iter      E             dE          RMSdq      gap      omega  full diag
   1    -32.0767108 -0.320767E+02  0.183E-02    3.64       0.0  T
   2    -32.0767108 -0.551546E-07  0.106E-02    3.64       1.8  T
   3    -32.0767108  0.227023E-07  0.187E-03    3.64      10.5  T
   4    -32.0767108 -0.319451E-07  0.633E-04    3.64      31.0  T
   5    -32.0767108 -0.226976E-08  0.265E-04    3.64      74.0  T
   6    -32.0767108 -0.114400E-08  0.885E-05    3.64     221.7  T
   7    -32.0767108 -0.121432E-10  0.299E-05    3.64     655.7  T
   8    -32.0767108 -0.301981E-11  0.105E-05    3.64    1865.2  T
   9    -32.0767108 -0.252953E-11  0.264E-06    3.64    7440.2  T
  10    -32.0767108  0.284217E-13  0.129E-06    3.64   15221.0  T
     SCC iter.                  ...        0 min,  0.075 sec
     gradient                   ...        0 min,  0.003 sec
 * total energy  :   -31.5555173 Eh     change       -0.8257170E-05 Eh
   gradient norm :     0.0005460 Eh/α   predicted    -0.3293969E-05 ( -60.11%)
   displ. norm   :     0.0445397 α      lambda       -0.5725859E-05
   maximum displ.:     0.0372089 α      in ANC's #1, #4, #5, ...

........................................................................
.............................. CYCLE   31 ..............................
........................................................................

 iter      E             dE          RMSdq      gap      omega  full diag
   1    -32.0768238 -0.320768E+02  0.161E-02    3.64       0.0  T
   2    -32.0768239 -0.198479E-07  0.935E-03    3.64       2.1  T
   3    -32.0768238  0.293989E-07  0.135E-03    3.64      14.5  T
   4    -32.0768239 -0.343687E-07  0.432E-04    3.64      45.4  T
   5    -32.0768239 -0.253824E-08  0.141E-04    3.64     138.9  T
   6    -32.0768239 -0.709903E-10  0.609E-05    3.64     321.8  T
   7    -32.0768239 -0.380851E-11  0.156E-05    3.64    1254.5  T
   8    -32.0768239 -0.429168E-11  0.533E-06    3.64    3681.8  T
   9    -32.0768239 -0.213163E-12  0.212E-06    3.64    9262.9  T
     SCC iter.                  ...        0 min,  0.075 sec
     gradient                   ...        0 min,  0.002 sec
 * total energy  :   -31.5555245 Eh     change       -0.7237903E-05 Eh
   gradient norm :     0.0003314 Eh/α   predicted    -0.2866540E-05 ( -60.40%)
   displ. norm   :     0.0395450 α      lambda       -0.4177673E-05
   maximum displ.:     0.0345172 α      in ANC's #1, #4, #2, ...

........................................................................
.............................. CYCLE   32 ..............................
........................................................................

 iter      E             dE          RMSdq      gap      omega  full diag
   1    -32.0767573 -0.320768E+02  0.144E-02    3.65       0.0  T
   2    -32.0767573 -0.152599E-07  0.845E-03    3.65       2.3  T
   3    -32.0767573  0.311766E-07  0.131E-03    3.65      14.9  T
   4    -32.0767573 -0.371399E-07  0.340E-04    3.65      57.7  T
   5    -32.0767573 -0.112725E-08  0.104E-04    3.65     189.3  T
   6    -32.0767573 -0.462492E-10  0.537E-05    3.65     365.0  T
   7    -32.0767573 -0.366640E-11  0.129E-05    3.65    1515.3  T
   8    -32.0767573 -0.223821E-11  0.515E-06    3.65    3806.9  T
   9    -32.0767573 -0.277112E-12  0.173E-06    3.65   11322.4  T
     SCC iter.                  ...        0 min,  0.074 sec
     gradient                   ...        0 min,  0.003 sec
 * total energy  :   -31.5555301 Eh     change       -0.5557036E-05 Eh
   gradient norm :     0.0003470 Eh/α   predicted    -0.2091695E-05 ( -62.36%)
   displ. norm   :     0.0388187 α      lambda       -0.3739251E-05
   maximum displ.:     0.0331543 α      in ANC's #1, #2, #3, ...

........................................................................
.............................. CYCLE   33 ..............................
........................................................................

 iter      E             dE          RMSdq      gap      omega  full diag
   1    -32.0767623 -0.320768E+02  0.146E-02    3.65       0.0  T
   2    -32.0767623 -0.141006E-07  0.851E-03    3.65       2.3  T
   3    -32.0767623  0.809293E-08  0.887E-04    3.65      22.1  T
   4    -32.0767623 -0.110021E-07  0.319E-04    3.65      61.4  T
   5    -32.0767623 -0.127974E-08  0.113E-04    3.65     173.4  T
   6    -32.0767623 -0.135948E-09  0.577E-05    3.65     340.0  T
   7    -32.0767623 -0.452616E-11  0.120E-05    3.65    1631.6  T
   8    -32.0767623 -0.241585E-11  0.497E-06    3.65    3948.5  T
   9    -32.0767623 -0.206057E-12  0.219E-06    3.65    8945.8  T
     SCC iter.                  ...        0 min,  0.074 sec
     gradient                   ...        0 min,  0.002 sec
 * total energy  :   -31.5555354 Eh     change       -0.5276883E-05 Eh
   gradient norm :     0.0003494 Eh/α   predicted    -0.1873880E-05 ( -64.49%)
   displ. norm   :     0.0553589 α      lambda       -0.5186827E-05
   maximum displ.:     0.0443465 α      in ANC's #1, #2, #3, ...

........................................................................
.............................. CYCLE   34 ..............................
........................................................................

 iter      E             dE          RMSdq      gap      omega  full diag
   1    -32.0767452 -0.320767E+02  0.212E-02    3.65       0.0  T
   2    -32.0767452 -0.262725E-07  0.124E-02    3.65       1.6  T
   3    -32.0767452  0.141929E-07  0.131E-03    3.65      15.0  T
   4    -32.0767453 -0.212538E-07  0.405E-04    3.65      48.4  T
   5    -32.0767453 -0.138510E-08  0.183E-04    3.65     107.0  T
   6    -32.0767453 -0.455529E-09  0.839E-05    3.65     233.7  T
   7    -32.0767453 -0.126477E-10  0.122E-05    3.65    1604.1  T
   8    -32.0767453 -0.237321E-11  0.570E-06    3.65    3442.2  T
   9    -32.0767453 -0.248690E-12  0.223E-06    3.65    8789.7  T
     SCC iter.                  ...        0 min,  0.074 sec
     gradient                   ...        0 min,  0.002 sec
 * total energy  :   -31.5555429 Eh     change       -0.7484006E-05 Eh
   gradient norm :     0.0003467 Eh/α   predicted    -0.2600969E-05 ( -65.25%)
   displ. norm   :     0.0942966 α      lambda       -0.8489040E-05
   maximum displ.:     0.0713134 α      in ANC's #1, #2, #4, ...

........................................................................
.............................. CYCLE   35 ..............................
........................................................................

 iter      E             dE          RMSdq      gap      omega  full diag
   1    -32.0766749 -0.320767E+02  0.359E-02    3.65       0.0  T
   2    -32.0766750 -0.817051E-07  0.210E-02    3.65       1.0  T
   3    -32.0766750  0.210749E-07  0.195E-03    3.65      10.1  T
   4    -32.0766750 -0.392184E-07  0.683E-04    3.65      28.7  T
   5    -32.0766750 -0.413778E-08  0.289E-04    3.65      67.9  T
   6    -32.0766750 -0.102474E-08  0.139E-04    3.65     141.3  T
   7    -32.0766750 -0.351577E-10  0.242E-05    3.65     810.4  T
   8    -32.0766750 -0.103242E-10  0.106E-05    3.65    1849.2  T
   9    -32.0766750 -0.114397E-11  0.446E-06    3.65    4399.9  T
  10    -32.0766750 -0.426326E-13  0.106E-06    3.65   18531.2  T
     SCC iter.                  ...        0 min,  0.075 sec
     gradient                   ...        0 min,  0.002 sec
 * total energy  :   -31.5555549 Eh     change       -0.1207112E-04 Eh
   gradient norm :     0.0003079 Eh/α   predicted    -0.4266303E-05 ( -64.66%)
   displ. norm   :     0.1597923 α      lambda       -0.1330320E-04
   maximum displ.:     0.1177915 α      in ANC's #1, #2, #4, ...

........................................................................
.............................. CYCLE   36 ..............................
........................................................................

 iter      E             dE          RMSdq      gap      omega  full diag
   1    -32.0765406 -0.320765E+02  0.613E-02    3.64       0.0  T
   2    -32.0765409 -0.231769E-06  0.359E-02    3.64       1.0  T
   3    -32.0765408  0.611512E-07  0.351E-03    3.64       5.6  T
   4    -32.0765409 -0.118178E-06  0.110E-03    3.64      17.8  T
   5    -32.0765409 -0.796738E-08  0.525E-04    3.64      37.4  T
   6    -32.0765409 -0.364341E-08  0.242E-04    3.64      81.1  T
   7    -32.0765409 -0.122427E-09  0.378E-05    3.64     519.2  T
   8    -32.0765409 -0.220766E-10  0.172E-05    3.64    1142.1  T
   9    -32.0765409 -0.323297E-11  0.730E-06    3.64    2684.8  T
  10    -32.0765409 -0.127898E-12  0.162E-06    3.64   12133.9  T
     SCC iter.                  ...        0 min,  0.074 sec
     gradient                   ...        0 min,  0.002 sec
 * total energy  :   -31.5555732 Eh     change       -0.1828013E-04 Eh
   gradient norm :     0.0003985 Eh/α   predicted    -0.6731667E-05 ( -63.17%)
   displ. norm   :     0.2382615 α      lambda       -0.1741768E-04
   maximum displ.:     0.1737908 α      in ANC's #1, #2, #4, ...

........................................................................
.............................. CYCLE   37 ..............................
........................................................................

 iter      E             dE          RMSdq      gap      omega  full diag
   1    -32.0761533 -0.320762E+02  0.923E-02    3.64       0.0  T
   2    -32.0761538 -0.531560E-06  0.541E-02    3.64       1.0  T
   3    -32.0761537  0.136760E-06  0.509E-03    3.64       3.9  T
   4    -32.0761539 -0.259233E-06  0.169E-03    3.64      11.6  T
   5    -32.0761540 -0.229370E-07  0.752E-04    3.64      26.1  T
   6    -32.0761540 -0.725550E-08  0.341E-04    3.64      57.5  T
   7    -32.0761540 -0.223437E-09  0.624E-05    3.64     314.1  T
   8    -32.0761540 -0.559623E-10  0.280E-05    3.64     701.0  T
   9    -32.0761540 -0.948575E-11  0.115E-05    3.64    1703.6  T
  10    -32.0761540 -0.170530E-12  0.315E-06    3.64    6218.2  T
  11    -32.0761540 -0.639488E-13  0.122E-06    3.64   16099.0  T
     SCC iter.                  ...        0 min,  0.075 sec
     gradient                   ...        0 min,  0.002 sec
 * total energy  :   -31.5555958 Eh     change       -0.2254844E-04 Eh
   gradient norm :     0.0008333 Eh/α   predicted    -0.8930239E-05 ( -60.40%)
   displ. norm   :     0.3182946 α      lambda       -0.1970993E-04
   maximum displ.:     0.2334984 α      in ANC's #1, #2, #4, ...

........................................................................
.............................. CYCLE   38 ..............................
........................................................................

 iter      E             dE          RMSdq      gap      omega  full diag
   1    -32.0756080 -0.320756E+02  0.124E-01    3.64       0.0  T
   2    -32.0756090 -0.978430E-06  0.727E-02    3.64       1.0  T
   3    -32.0756088  0.224220E-06  0.691E-03    3.64       2.8  T
   4    -32.0756092 -0.448671E-06  0.224E-03    3.64       8.7  T
   5    -32.0756093 -0.385927E-07  0.103E-03    3.64      19.0  T
   6    -32.0756093 -0.142117E-07  0.463E-04    3.64      42.4  T
   7    -32.0756093 -0.396653E-09  0.824E-05    3.64     237.9  T
   8    -32.0756093 -0.942038E-10  0.372E-05    3.64     526.7  T
   9    -32.0756093 -0.162288E-10  0.163E-05    3.64    1201.2  T
  10    -32.0756093 -0.376588E-12  0.396E-06    3.64    4948.2  T
  11    -32.0756093 -0.213163E-13  0.146E-06    3.64   13472.4  T
     SCC iter.                  ...        0 min,  0.074 sec
     gradient                   ...        0 min,  0.002 sec
 * total energy  :   -31.5556180 Eh     change       -0.2223056E-04 Eh
   gradient norm :     0.0014637 Eh/α   predicted    -0.1030006E-04 ( -53.67%)
   displ. norm   :     0.3410430 α      lambda       -0.1765911E-04
   maximum displ.:     0.2520121 α      in ANC's #1, #2, #4, ...

........................................................................
.............................. CYCLE   39 ..............................
........................................................................

 iter      E             dE          RMSdq      gap      omega  full diag
   1    -32.0752786 -0.320753E+02  0.135E-01    3.64       0.0  T
   2    -32.0752797 -0.110580E-05  0.791E-02    3.64       1.0  T
   3    -32.0752793  0.374730E-06  0.766E-03    3.64       2.6  T
   4    -32.0752800 -0.631373E-06  0.243E-03    3.64       8.1  T
   5    -32.0752800 -0.535398E-07  0.109E-03    3.64      17.9  T
   6    -32.0752800 -0.165074E-07  0.465E-04    3.64      42.2  T
   7    -32.0752800 -0.369482E-09  0.896E-05    3.64     218.9  T
   8    -32.0752800 -0.101750E-09  0.395E-05    3.64     496.2  T
   9    -32.0752800 -0.198881E-10  0.171E-05    3.64    1149.4  T
  10    -32.0752800 -0.525802E-12  0.502E-06    3.64    3904.9  T
  11    -32.0752800 -0.852651E-13  0.175E-06    3.64   11178.4  T
     SCC iter.                  ...        0 min,  0.076 sec
     gradient                   ...        0 min,  0.002 sec
 * total energy  :   -31.5556342 Eh     change       -0.1619625E-04 Eh
   gradient norm :     0.0019025 Eh/α   predicted    -0.9290506E-05 ( -42.64%)
   displ. norm   :     0.1517136 α      lambda       -0.1551847E-04
   maximum displ.:     0.1129155 α      in ANC's #1, #2, #4, ...

........................................................................
.............................. CYCLE   40 ..............................
........................................................................

 iter      E             dE          RMSdq      gap      omega  full diag
   1    -32.0769982 -0.320770E+02  0.620E-02    3.65       0.0  T
   2    -32.0769985 -0.238443E-06  0.363E-02    3.65       1.0  T
   3    -32.0769983  0.152084E-06  0.361E-03    3.65       5.4  T
   4    -32.0769985 -0.215214E-06  0.117E-03    3.65      16.8  T
   5    -32.0769985 -0.159482E-07  0.419E-04    3.65      46.8  T
   6    -32.0769985 -0.148943E-08  0.199E-04    3.65      98.4  T
   7    -32.0769985 -0.777050E-10  0.555E-05    3.65     353.2  T
   8    -32.0769985 -0.569500E-10  0.155E-05    3.65    1262.4  T
   9    -32.0769985 -0.221689E-11  0.694E-06    3.65    2826.3  T
  10    -32.0769985 -0.127898E-12  0.231E-06    3.65    8490.9  T
     SCC iter.                  ...        0 min,  0.074 sec
     gradient                   ...        0 min,  0.002 sec
 * total energy  :   -31.5556473 Eh     change       -0.1307502E-04 Eh
   gradient norm :     0.0008772 Eh/α   predicted    -0.7842939E-05 ( -40.02%)
   displ. norm   :     0.2887448 α      lambda       -0.1064002E-04
   maximum displ.:     0.2022284 α      in ANC's #1, #2, #4, ...

........................................................................
.............................. CYCLE   41 ..............................
........................................................................

 iter      E             dE          RMSdq      gap      omega  full diag
   1    -32.0761028 -0.320761E+02  0.114E-01    3.64       0.0  T
   2    -32.0761037 -0.881197E-06  0.666E-02    3.64       1.0  T
   3    -32.0761035  0.166858E-06  0.603E-03    3.65       3.3  T
   4    -32.0761039 -0.342605E-06  0.212E-03    3.65       9.3  T
   5    -32.0761039 -0.436929E-07  0.905E-04    3.65      21.7  T
   6    -32.0761039 -0.116302E-07  0.389E-04    3.65      50.4  T
   7    -32.0761039 -0.313804E-09  0.886E-05    3.65     221.2  T
   8    -32.0761039 -0.757225E-10  0.366E-05    3.65     535.8  T
   9    -32.0761039 -0.133369E-10  0.168E-05    3.65    1165.3  T
  10    -32.0761039 -0.476064E-12  0.543E-06    3.65    3608.7  T
  11    -32.0761039 -0.191847E-12  0.239E-06    3.65    8219.1  T
     SCC iter.                  ...        0 min,  0.075 sec
     gradient                   ...        0 min,  0.002 sec
 * total energy  :   -31.5556562 Eh     change       -0.8945849E-05 Eh
   gradient norm :     0.0010557 Eh/α   predicted    -0.5519059E-05 ( -38.31%)
   displ. norm   :     0.0667000 α      lambda       -0.6019815E-05
   maximum displ.:     0.0376161 α      in ANC's #2, #1, #10, ...

........................................................................
.............................. CYCLE   42 ..............................
........................................................................

 iter      E             dE          RMSdq      gap      omega  full diag
   1    -32.0768837 -0.320769E+02  0.230E-02    3.65       0.0  T
   2    -32.0768837 -0.339427E-07  0.136E-02    3.65       1.4  T
   3    -32.0768837  0.454276E-07  0.157E-03    3.65      12.5  T
   4    -32.0768837 -0.574792E-07  0.378E-04    3.65      51.9  T
   5    -32.0768837 -0.151568E-08  0.167E-04    3.65     117.4  T
   6    -32.0768837 -0.110774E-09  0.874E-05    3.65     224.3  T
   7    -32.0768837 -0.364935E-10  0.192E-05    3.65    1021.9  T
   8    -32.0768837 -0.588329E-11  0.745E-06    3.65    2631.9  T
   9    -32.0768837 -0.110134E-11  0.295E-06    3.65    6658.2  T
     SCC iter.                  ...        0 min,  0.073 sec
     gradient                   ...        0 min,  0.002 sec
 * total energy  :   -31.5556615 Eh     change       -0.5322356E-05 Eh
   gradient norm :     0.0010345 Eh/α   predicted    -0.3016392E-05 ( -43.33%)
   displ. norm   :     0.1633067 α      lambda       -0.6017500E-05
   maximum displ.:     0.1020843 α      in ANC's #1, #2, #4, ...
 * RMSD in coord.:     0.5071767 α      energy gain  -0.4622104E-03 Eh

generating ANC from model Hessian ...
Using Lindh-Hessian (1995)
 Shifting diagonal of input Hessian by   9.127279219429947E-003
 Lowest  eigenvalues of input Hessian
    0.000000    0.000000    0.000000    0.000000    0.000000    0.000000
    0.010000    0.010072    0.010630    0.011266    0.012138    0.012464
    0.015029    0.017072    0.018436    0.019347    0.024233    0.024878
 Highest eigenvalues
    1.363949    1.551496    1.576717    1.881890    1.987740    2.005492
 

........................................................................
.............................. CYCLE   43 ..............................
........................................................................

 iter      E             dE          RMSdq      gap      omega  full diag
   1    -32.0766432 -0.320766E+02  0.609E-02    3.65       0.0  T
   2    -32.0766434 -0.192050E-06  0.357E-02    3.65       1.0  T
   3    -32.0766433  0.355836E-07  0.275E-03    3.65       7.1  T
   4    -32.0766434 -0.915630E-07  0.105E-03    3.65      18.7  T
   5    -32.0766434 -0.119636E-07  0.425E-04    3.65      46.2  T
   6    -32.0766434 -0.132916E-08  0.194E-04    3.65     101.1  T
   7    -32.0766434 -0.366285E-10  0.388E-05    3.65     505.7  T
   8    -32.0766434 -0.316618E-10  0.174E-05    3.65    1129.0  T
   9    -32.0766434 -0.260059E-11  0.623E-06    3.65    3147.8  T
  10    -32.0766434 -0.923706E-13  0.180E-06    3.65   10887.8  T
     SCC iter.                  ...        0 min,  0.074 sec
     gradient                   ...        0 min,  0.002 sec
 * total energy  :   -31.5556648 Eh     change       -0.3294297E-05 Eh
   gradient norm :     0.0008892 Eh/α   predicted     0.0000000E+00 (-100.00%)
   displ. norm   :     0.0092202 α      lambda       -0.8138823E-06
   maximum displ.:     0.0043315 α      in ANC's #3, #2, #23, ...

........................................................................
.............................. CYCLE   44 ..............................
........................................................................

 iter      E             dE          RMSdq      gap      omega  full diag
   1    -32.0769660 -0.320770E+02  0.661E-03    3.65       0.0  T
   2    -32.0769660 -0.133746E-07  0.388E-03    3.65       5.1  T
   3    -32.0769660  0.665587E-09  0.531E-04    3.65      36.9  T
   4    -32.0769660 -0.183539E-08  0.176E-04    3.65     111.6  T
   5    -32.0769660 -0.391722E-09  0.856E-05    3.65     229.2  T
   6    -32.0769660 -0.693916E-10  0.315E-05    3.65     623.2  T
   7    -32.0769660 -0.329692E-11  0.107E-05    3.65    1838.2  T
   8    -32.0769660 -0.103029E-11  0.286E-06    3.65    6847.1  T
   9    -32.0769660 -0.355271E-13  0.123E-06    3.65   15880.0  T
     SCC iter.                  ...        0 min,  0.074 sec
     gradient                   ...        0 min,  0.002 sec
 * total energy  :   -31.5556660 Eh     change       -0.1164559E-05 Eh
   gradient norm :     0.0002636 Eh/α   predicted    -0.1018488E-05 ( -12.54%)
   displ. norm   :     0.0072014 α      lambda       -0.4939452E-06
   maximum displ.:     0.0041449 α      in ANC's #3, #2, #5, ...

........................................................................
.............................. CYCLE   45 ..............................
........................................................................

 iter      E             dE          RMSdq      gap      omega  full diag
   1    -32.0769879 -0.320770E+02  0.337E-03    3.65       0.0  T
   2    -32.0769879 -0.173874E-08  0.197E-03    3.65       9.9  T
   3    -32.0769879  0.113666E-08  0.337E-04    3.65      58.2  T
   4    -32.0769879 -0.134222E-08  0.112E-04    3.65     174.4  T
   5    -32.0769879 -0.187391E-09  0.428E-05    3.65     458.2  T
   6    -32.0769879 -0.279528E-10  0.185E-05    3.65    1062.8  T
   7    -32.0769879 -0.603961E-12  0.406E-06    3.65    4830.2  T
   8    -32.0769879 -0.781597E-13  0.143E-06    3.65   13676.3  T
     SCC iter.                  ...        0 min,  0.073 sec
     gradient                   ...        0 min,  0.002 sec
 * total energy  :   -31.5556665 Eh     change       -0.5121165E-06 Eh
   gradient norm :     0.0002047 Eh/α   predicted    -0.2640864E-06 ( -48.43%)
   displ. norm   :     0.0082224 α      lambda        0.8269173E-07
   maximum displ.:     0.0047918 α      in ANC's #3, #2, #5, ...

........................................................................
.............................. CYCLE   46 ..............................
........................................................................

 iter      E             dE          RMSdq      gap      omega  full diag
   1    -32.0770058 -0.320770E+02  0.362E-03    3.65       0.0  T
   2    -32.0770058 -0.192717E-08  0.212E-03    3.65       9.2  T
   3    -32.0770058  0.145207E-08  0.365E-04    3.65      53.7  T
   4    -32.0770058 -0.170682E-08  0.120E-04    3.65     163.6  T
   5    -32.0770058 -0.215302E-09  0.452E-05    3.65     434.0  T
   6    -32.0770058 -0.305747E-10  0.196E-05    3.65    1001.9  T
   7    -32.0770058 -0.667910E-12  0.427E-06    3.65    4588.6  T
   8    -32.0770058 -0.113687E-12  0.153E-06    3.65   12816.2  T
     SCC iter.                  ...        0 min,  0.073 sec
     gradient                   ...        0 min,  0.002 sec
 * total energy  :   -31.5556665 Eh     change        0.4020168E-07 Eh
   gradient norm :     0.0003824 Eh/α   predicted     0.3977652E-07 (  -1.06%)
   displ. norm   :     0.0057071 α      lambda       -0.4849555E-06
   maximum displ.:     0.0033337 α      in ANC's #3, #2, #6, ...

........................................................................
.............................. CYCLE   47 ..............................
........................................................................

 iter      E             dE          RMSdq      gap      omega  full diag
   1    -32.0769168 -0.320769E+02  0.321E-03    3.65       0.0  T
   2    -32.0769168 -0.318847E-08  0.185E-03    3.65      10.6  T
   3    -32.0769168  0.541029E-09  0.319E-04    3.65      61.5  T
   4    -32.0769168 -0.696573E-09  0.135E-04    3.65     145.5  T
   5    -32.0769168 -0.212800E-09  0.480E-05    3.65     408.5  T
   6    -32.0769168 -0.439968E-10  0.211E-05    3.65     929.6  T
   7    -32.0769168 -0.184741E-11  0.612E-06    3.65    3202.0  T
   8    -32.0769168 -0.568434E-13  0.215E-06    3.65    9106.6  T
     SCC iter.                  ...        0 min,  0.073 sec
     gradient                   ...        0 min,  0.002 sec
 * total energy  :   -31.5556670 Eh     change       -0.5242648E-06 Eh
   gradient norm :     0.0001508 Eh/α   predicted    -0.2458344E-06 ( -53.11%)
[...]
         :::::::::::::::::::::::::::::::::::::::::::::::::::::

           ------------------------------------------------- 
          |                Numerical Hessian                |
           ------------------------------------------------- 
step length          :   0.00500
SCC accuracy         :   0.30000
Hessian scale factor :   1.00000
frozen atoms in %    :   0.00000    0
RMS gradient         :   0.00004
estimated CPU  time      1.16 min
estimated wall time      0.14 min

writing file <hessian>.

 projected vibrational frequencies (cm⁻¹)
eigval :       -0.00    -0.00    -0.00    -0.00     0.00     0.00
eigval :       24.88    64.79    85.88   113.55   161.61   170.80
eigval :      201.43   222.27   248.38   263.46   313.80   361.55
eigval :      366.46   392.52   473.51   585.87   648.59   659.34
eigval :      679.12   690.13   736.73   760.56   769.47   872.80
eigval :      896.00   925.82   931.59   967.52   982.41   995.11
eigval :     1013.63  1017.26  1063.78  1077.66  1084.92  1115.16
eigval :     1123.45  1181.76  1203.85  1222.88  1230.71  1250.65
eigval :     1268.35  1280.33  1317.23  1407.88  1412.84  1421.39
eigval :     1449.00  1451.52  1461.68  1496.50  1499.46  1505.06
eigval :     1506.30  1578.06  1589.28  2936.18  2941.36  2951.05
eigval :     2955.74  3011.71  3012.26  3023.64  3025.48  3034.20
eigval :     3041.13  3055.06  3067.54  3074.37  3086.76  3093.72
           -------------------------------------------------
          |                Property Printout                |
           -------------------------------------------------

    * Orbital Energies and Occupations

         #    Occupation            Energy/Eh            Energy/eV
      -------------------------------------------------------------
         1        2.0000           -0.6587873             -17.9265
       ...           ...                  ...                  ...
        18        2.0000           -0.4753843             -12.9359
        19        2.0000           -0.4741766             -12.9030
        20        2.0000           -0.4670965             -12.7103
        21        2.0000           -0.4610117             -12.5448
        22        2.0000           -0.4564628             -12.4210
        23        2.0000           -0.4434606             -12.0672
        24        2.0000           -0.4381979             -11.9240
        25        2.0000           -0.4239867             -11.5373
        26        2.0000           -0.4162390             -11.3264
        27        2.0000           -0.4072205             -11.0810
        28        2.0000           -0.4029207             -10.9640
        29        2.0000           -0.3995796             -10.8731
        30        2.0000           -0.3640990              -9.9076 (HOMO)
        31                         -0.2300109              -6.2589 (LUMO)
        32                         -0.2215757              -6.0294
        33                         -0.1548010              -4.2123
        34                         -0.1502156              -4.0876
        35                         -0.0931967              -2.5360
        36                          0.0038930               0.1059
        37                          0.0490055               1.3335
        38                          0.0987905               2.6882
        39                          0.1127343               3.0677
        40                          0.1210352               3.2935
        41                          0.1306311               3.5547
       ...                                ...                  ...
        64                          0.7768542              21.1393
      -------------------------------------------------------------
                  HL-Gap            0.1340881 Eh            3.6487 eV
             Fermi-level           -0.2970549 Eh           -8.0833 eV

     #   Z          covCN         q      C6AA      α(0)
     1  15 P        3.029    -0.114   165.399    23.104
     2   6 C        3.748    -0.046    21.462     6.608
     3   1 H        0.926     0.042     2.422     2.434
     4   1 H        0.926     0.040     2.450     2.448
     5   6 C        3.780    -0.096    22.347     6.734
     6   1 H        0.925     0.038     2.472     2.459
     7   1 H        0.925     0.037     2.486     2.466
     8   1 H        0.925     0.033     2.540     2.492
     9   6 C        2.915     0.012    27.743     8.637
    10   6 C        2.956    -0.033    28.820     8.805
    11   6 C        3.032    -0.030    28.719     8.790
    12   6 C        2.920    -0.032    28.787     8.798
    13   6 C        2.918    -0.030    28.749     8.793
    14   6 C        2.920    -0.031    28.775     8.797
    15   1 H        0.926     0.036     2.506     2.475
    16   1 H        0.925     0.034     2.524     2.484
    17   1 H        0.926     0.027     2.629     2.535
    18   1 H        0.926     0.029     2.607     2.525
    19   1 H        0.926     0.028     2.617     2.530
    20   6 C        3.748    -0.046    21.456     6.607
    21   1 H        0.925     0.046     2.368     2.407
    22   1 H        0.926     0.040     2.446     2.446
    23   6 C        3.821    -0.098    22.342     6.727
    24   1 H        0.925     0.039     2.465     2.455
    25   1 H        0.925     0.041     2.434     2.440
    26   1 H        0.925     0.031     2.569     2.507

 Mol. C6AA /au·bohr⁶  :       7599.594578
 Mol. C8AA /au·bohr⁸  :     202588.806951
 Mol. α(0) /au        :        139.501169


Wiberg/Mayer (AO) data.
largest (>0.10) Wiberg bond orders for each atom

 ---------------------------------------------------------------------------
     #   Z sym  total        # sym  WBO       # sym  WBO       # sym  WBO
 ---------------------------------------------------------------------------
     1  15 P    3.374 --    20 C    1.030     9 C    1.018     2 C    1.012
     2   6 C    3.994 --     1 P    1.012     5 C    1.012     4 H    0.957
                             3 H    0.956
     3   1 H    0.998 --     2 C    0.956
     4   1 H    0.998 --     2 C    0.957
     5   6 C    3.997 --     2 C    1.012     7 H    0.985     6 H    0.983
                             8 H    0.983
     6   1 H    0.999 --     5 C    0.983
     7   1 H    0.999 --     5 C    0.985
     8   1 H    0.999 --     5 C    0.983
     9   6 C    3.982 --    10 C    1.404    11 C    1.389     1 P    1.018
                            14 C    0.106
    10   6 C    3.993 --    12 C    1.439     9 C    1.404    15 H    0.961
                            13 C    0.107
    11   6 C    3.992 --    13 C    1.457     9 C    1.389    16 H    0.962
                            12 C    0.110
    12   6 C    3.993 --    14 C    1.442    10 C    1.439    17 H    0.970
                            11 C    0.110
    13   6 C    3.991 --    11 C    1.457    14 C    1.428    18 H    0.970
                            10 C    0.107
    14   6 C    3.992 --    12 C    1.442    13 C    1.428    19 H    0.971
                             9 C    0.106
    15   1 H    0.999 --    10 C    0.961
    16   1 H    0.999 --    11 C    0.962
    17   1 H    0.999 --    12 C    0.970
    18   1 H    0.999 --    13 C    0.970
    19   1 H    0.998 --    14 C    0.971
    20   6 C    3.995 --     1 P    1.030    23 C    1.016    22 H    0.956
                            21 H    0.949
    21   1 H    0.998 --    20 C    0.949
    22   1 H    0.998 --    20 C    0.956
    23   6 C    3.997 --    20 C    1.016    25 H    0.985    26 H    0.985
                            24 H    0.983
    24   1 H    0.998 --    23 C    0.983
    25   1 H    0.998 --    23 C    0.985
    26   1 H    0.999 --    23 C    0.985
 ---------------------------------------------------------------------------

Topologies differ in total number of bonds
Writing topology from bond orders to xtbtopo.mol

molecular dipole:
                 x           y           z       tot (Debye)
 q only:        0.060      -0.163      -0.267
   full:        0.242      -0.462      -0.393       1.661
molecular quadrupole (traceless):
                xx          xy          yy          xz          yz          zz
 q only:       -0.618      -0.198      -2.121      -2.751       0.939       2.739
  q+dip:        1.850      -2.969      -6.348      -5.289       0.322       4.498
   full:        0.690      -1.761      -4.885      -4.635       1.856       4.195

           -------------------------------------------------
          |                Geometry Summary                 |
           -------------------------------------------------

      molecular mass/u    :      166.2002322
   center of mass at/Å    :        2.8230514      -1.0033002      -2.3956099
  moments of inertia/u·Å² :        0.3626142E+03   0.7174909E+03   0.8773925E+03
rotational constants/cm⁻¹ :        0.4648917E-01   0.2349526E-01   0.1921333E-01

 * 24 selected distances

     #   Z          #   Z                                           value/Å
     2   6 C        3   1 H                                       1.0935919
     2   6 C        4   1 H                                       1.0940038
     2   6 C        5   6 C                                       1.5224590
     5   6 C        6   1 H                                       1.0886377
     5   6 C        7   1 H                                       1.0870934
     5   6 C        8   1 H                                       1.0890779
     9   6 C       10   6 C                                       1.3889816
     9   6 C       11   6 C                                       1.3938792
    10   6 C       12   6 C                                       1.3847373
    11   6 C       13   6 C                                       1.3808226
    12   6 C       14   6 C                                       1.3835065
    13   6 C       14   6 C                                       1.3857598
    10   6 C       15   1 H                                       1.0792718 (min)
    11   6 C       16   1 H                                       1.0820149
    12   6 C       17   1 H                                       1.0809593
    13   6 C       18   1 H                                       1.0806073
    14   6 C       19   1 H                                       1.0801814
     1  15 P       20   6 C                                       1.8636698 (max)
    20   6 C       21   1 H                                       1.0921071
    20   6 C       22   1 H                                       1.0942645
    20   6 C       23   6 C                                       1.5244056
    23   6 C       24   1 H                                       1.0883709
    23   6 C       25   1 H                                       1.0880581
    23   6 C       26   1 H                                       1.0892118

 * 3 distinct bonds (by element types)

   Z      Z             #   av. dist./Å        max./Å        min./Å
   1 H    6 C          15     1.0871635     1.0942645     1.0792718
   6 C    6 C           8     1.4205689     1.5244056     1.3808226
   6 C   15 P           1     1.8636698     1.8636698     1.8636698

           -------------------------------------------------
          |               Frequency Printout                |
           -------------------------------------------------
 projected vibrational frequencies (cm⁻¹)
eigval :       -0.00    -0.00    -0.00    -0.00     0.00     0.00
eigval :       24.88    64.79    85.88   113.55   161.61   170.80
eigval :      201.43   222.27   248.38   263.46   313.80   361.55
eigval :      366.46   392.52   473.51   585.87   648.59   659.34
eigval :      679.12   690.13   736.73   760.56   769.47   872.80
eigval :      896.00   925.82   931.59   967.52   982.41   995.11
eigval :     1013.63  1017.26  1063.78  1077.66  1084.92  1115.16
eigval :     1123.45  1181.76  1203.85  1222.88  1230.71  1250.65
eigval :     1268.35  1280.33  1317.23  1407.88  1412.84  1421.39
eigval :     1449.00  1451.52  1461.68  1496.50  1499.46  1505.06
eigval :     1506.30  1578.06  1589.28  2936.18  2941.36  2951.05
eigval :     2955.74  3011.71  3012.26  3023.64  3025.48  3034.20
eigval :     3041.13  3055.06  3067.54  3074.37  3086.76  3093.72
 reduced masses (amu)
   1: 11.51   2: 11.72   3: 13.59   4: 15.53   5: 13.72   6: 11.83   7:  9.87   8:  8.80
   9:  8.99  10:  9.86  11:  6.18  12:  7.34  13:  7.22  14:  6.80  15:  6.66  16:  8.72
  17: 13.04  18: 12.83  19: 10.58  20: 18.36  21: 12.88  22: 11.18  23: 13.81  24: 11.34
  25: 14.06  26: 12.64  27:  3.32  28:  6.94  29:  4.74  30:  3.30  31:  3.57  32:  4.14
  33:  2.97  34: 10.40  35:  3.24  36:  3.15  37:  3.63  38:  4.42  39:  9.54  40:  9.07
  41:  8.31  42:  8.49  43:  4.40  44:  1.31  45:  1.90  46:  3.63  47:  3.26  48:  4.23
  49:  4.13  50:  3.44  51: 11.94  52:  2.90  53:  2.94  54:  8.54  55:  2.79  56:  3.73
  57:  5.75  58:  1.53  59:  1.56  60:  1.56  61:  1.53  62: 11.43  63: 11.44  64:  1.93
  65:  1.98  66:  1.52  67:  1.51  68:  1.82  69:  1.87  70:  1.90  71:  1.71  72:  1.42
  73:  1.57  74:  1.80  75:  1.77  76:  1.83  77:  1.89  78:  1.86
 IR intensities (km·mol⁻¹)
   1:  0.08   2:  0.10   3:  0.03   4:  0.02   5:  0.06   6:  0.11   7:  0.08   8:  0.03
   9:  0.08  10:  0.18  11:  0.13  12:  0.21  13:  0.19  14:  0.16  15:  0.06  16:  0.79
  17:  0.24  18:  0.66  19:  0.20  20:  0.53  21:  5.15  22:  0.03  23: 11.74  24:  8.48
  25:  8.46  26: 10.88  27: 19.21  28: 36.26  29: 18.67  30:  0.08  31:  0.11  32:  0.05
  33:  0.01  34:  1.64  35:  5.42  36:  2.64  37:  0.91  38:  4.45  39:  6.17  40:  7.89
  41:  0.19  42:  1.36  43:  0.02  44:  0.01  45:  0.62  46:  2.83  47:  2.12  48:  5.93
  49:  6.34  50:  0.71  51:  0.39  52:  1.68  53:  2.09  54:  0.78  55:  0.41  56:  0.60
  57:  0.04  58:  1.74  59:  1.07  60:  1.52  61:  1.74  62:  0.38  63:  4.11  64:  4.14
  65: 40.57  66: 15.25  67: 21.03  68: 49.18  69: 45.85  70: 23.16  71: 29.85  72: 16.53
  73: 24.32  74: 16.70  75:  8.01  76: 49.40  77: 79.03  78: 22.70
 Raman intensities (Ä⁴*amu⁻¹)
   1:  0.00   2:  0.00   3:  0.00   4:  0.00   5:  0.00   6:  0.00   7:  0.00   8:  0.00
   9:  0.00  10:  0.00  11:  0.00  12:  0.00  13:  0.00  14:  0.00  15:  0.00  16:  0.00
  17:  0.00  18:  0.00  19:  0.00  20:  0.00  21:  0.00  22:  0.00  23:  0.00  24:  0.00
  25:  0.00  26:  0.00  27:  0.00  28:  0.00  29:  0.00  30:  0.00  31:  0.00  32:  0.00
  33:  0.00  34:  0.00  35:  0.00  36:  0.00  37:  0.00  38:  0.00  39:  0.00  40:  0.00
  41:  0.00  42:  0.00  43:  0.00  44:  0.00  45:  0.00  46:  0.00  47:  0.00  48:  0.00
  49:  0.00  50:  0.00  51:  0.00  52:  0.00  53:  0.00  54:  0.00  55:  0.00  56:  0.00
  57:  0.00  58:  0.00  59:  0.00  60:  0.00  61:  0.00  62:  0.00  63:  0.00  64:  0.00
  65:  0.00  66:  0.00  67:  0.00  68:  0.00  69:  0.00  70:  0.00  71:  0.00  72:  0.00
  73:  0.00  74:  0.00  75:  0.00  76:  0.00  77:  0.00  78:  0.00
 output can be read by thermo (or use thermo option).
 writing <g98.out> molden fake output.
 recommended (thermochemical) frequency scaling factor: 1.0
           -------------------------------------------------
          |             Thermodynamic Functions             |
           -------------------------------------------------

Refinement of some symmetry elements was terminated before convergence was reached.
Some symmetry elements may remain unidentified.
Molecule has no symmetry elements
It seems to be the C1 point group
c1  symmetry found (for desy threshold:  0.10E+00) used in thermo

          ...................................................
          :                      SETUP                      :
          :.................................................:
          :  # frequencies                          72      :
          :  # imaginary freq.                       0      :
          :  linear?                             false      :
          :  only rotor calc.                    false      :
          :  symmetry                               c1      :
          :  rotational number                       1      :
          :  scaling factor                  1.0000000      :
          :  rotor cutoff                   50.0000000 cm⁻¹ :
          :  imag. cutoff                  -20.0000000 cm⁻¹ :
          :.................................................:

    mode    ω/cm⁻¹     T·S(HO)/kcal·mol⁻¹    T·S(FR)/kcal·mol⁻¹   T·S(vib)
   ------------------------------------------------------------------------
       1     24.88    -1.84885 (  5.77%)    -1.26306 ( 94.23%)    -1.29688
       2     64.79    -1.28373 ( 73.82%)    -0.97966 ( 26.18%)    -1.20412
       3     85.88    -1.11862 ( 89.69%)    -0.89623 ( 10.31%)    -1.09570
       4    113.55    -0.95626 ( 96.38%)    -0.81350 (  3.62%)    -0.95109
       5    161.61    -0.75456 ( 99.09%)    -0.70896 (  0.91%)    -0.75415
       6    170.80    -0.72351 ( 99.27%)    -0.69258 (  0.73%)    -0.72328
       7    201.43    -0.63209 ( 99.62%)    -0.64373 (  0.38%)    -0.63213
       8    222.27    -0.57856 ( 99.74%)    -0.61456 (  0.26%)    -0.57866
       9    248.38    -0.51939 ( 99.84%)    -0.58166 (  0.16%)    -0.51949
      10    263.46    -0.48859 ( 99.87%)    -0.56420 (  0.13%)    -0.48868
   ------------------------------------------------------------------------

   temp. (K)  partition function   enthalpy   heat capacity  entropy
                                   cal/mol     cal/K/mol   cal/K/mol   J/K/mol
 298.15  VIB  0.142E+05             6117.708     39.487     37.303
         ROT  0.115E+07              888.752      2.981     30.721
         INT  0.164E+11             7006.461     42.468     68.024
         TR   0.207E+28             1481.254      4.968     41.214
         TOT                        8487.7147    47.4363   109.2378   457.0511

       T/K    H(0)-H(T)+PV         H(T)/Eh          T*S/Eh         G(T)/Eh
   ------------------------------------------------------------------------
    298.15    0.135260E-01    0.232473E+00    0.519024E-01    0.180571E+00
   ------------------------------------------------------------------------

         :::::::::::::::::::::::::::::::::::::::::::::::::::::
         ::                  THERMODYNAMIC                  ::
         :::::::::::::::::::::::::::::::::::::::::::::::::::::
         :: total free energy         -31.375097844018 Eh   ::
         ::.................................................::
         :: total energy              -31.555668625786 Eh   ::
         :: zero point energy           0.218947168736 Eh   ::
         :: G(RRHO) w/o ZPVE           -0.038376386968 Eh   ::
         :: G(RRHO) contrib.            0.180570781767 Eh   ::
         :::::::::::::::::::::::::::::::::::::::::::::::::::::

optimized geometry written to: xtbopt.xyz


           -------------------------------------------------
          | TOTAL ENERGY              -31.555668625786 Eh   |
          | TOTAL ENTHALPY            -31.323195422734 Eh   |
          | TOTAL FREE ENERGY         -31.375097844018 Eh   |
          | GRADIENT NORM               0.000037869361 Eh/α |
          | HOMO-LUMO GAP               3.648723977871 eV   |
           -------------------------------------------------

------------------------------------------------------------------------
 * finished run on 2025/07/14 at 11:36:01.963     
------------------------------------------------------------------------
 total:
 * wall-time:     0 d,  0 h,  0 min,  7.558 sec
 *  cpu-time:     0 d,  0 h,  1 min, 18.008 sec
 * ratio c/w:    10.322 speedup
 SCF:
 * wall-time:     0 d,  0 h,  0 min,  0.086 sec
 *  cpu-time:     0 d,  0 h,  0 min,  1.023 sec
 * ratio c/w:    11.951 speedup
 ANC optimizer:
 * wall-time:     0 d,  0 h,  0 min,  4.271 sec
 *  cpu-time:     0 d,  0 h,  0 min, 50.745 sec
 * ratio c/w:    11.882 speedup
 analytical hessian:
 * wall-time:     0 d,  0 h,  0 min,  3.190 sec
 *  cpu-time:     0 d,  0 h,  0 min, 26.139 sec
 * ratio c/w:     8.193 speedup

