      -----------------------------------------------------------      
     |                   =====================                   |     
     |                           x T B                           |     
     |                   =====================                   |     
     |                         S. Grimme                         |     
     |          Mulliken Center for Theoretical Chemistry        |     
     |                    University of Bonn                     |     
      -----------------------------------------------------------      

   * xtb version 6.7.0 (08769fc) compiled by 'albert@albert-system' on 2024-03-04

   xtb is free software: you can redistribute it and/or modify it under
   the terms of the GNU Lesser General Public License as published by
   the Free Software Foundation, either version 3 of the License, or
   (at your option) any later version.
   
   xtb is distributed in the hope that it will be useful,
   but WITHOUT ANY WARRANTY; without even the implied warranty of
   MERCHANTABILITY or FITNESS FOR A PARTICULAR PURPOSE.  See the
   GNU Lesser General Public License for more details.
   
   Cite this work as:
   * C. Bannwarth, E. Caldeweyher, S. Ehlert, A. Hansen, P. Pracht,
     J. Seibert, S. Spicher, S. Grimme, WIREs Comput. Mol. Sci., 2020, 11,
     e01493. DOI: 10.1002/wcms.1493
   
   for GFN2-xTB:
   * C. Bannwarth, S. Ehlert and S. Grimme., J. Chem. Theory Comput., 2019,
     15, 1652-1671. DOI: 10.1021/acs.jctc.8b01176
   for GFN1-xTB:
   * S. Grimme, C. Bannwarth, P. Shushkov, J. Chem. Theory Comput., 2017,
     13, 1989-2009. DOI: 10.1021/acs.jctc.7b00118
   for GFN0-xTB:
   * P. Pracht, E. Caldeweyher, S. Ehlert, S. Grimme, ChemRxiv, 2019, preprint.
     DOI: 10.26434/chemrxiv.8326202.v1
   for GFN-FF:
   * S. Spicher and S. Grimme, Angew. Chem. Int. Ed., 2020, 59, 15665-15673.
     DOI: 10.1002/anie.202004239
   
   for ALPB and GBSA implicit solvation:
   * S. Ehlert, M. Stahn, S. Spicher, S. Grimme, J. Chem. Theory Comput.,
     2021, 17, 4250-4261. DOI: 10.1021/acs.jctc.1c00471
   
   for ddCOSMO and CPCM-X implicit solvation:
   * M. Stahn, S. Ehlert, S. Grimme, J. Phys. Chem. A,
     2023, XX, XXXX-XXXX. DOI: 10.1021/acs.jpca.3c04382
   
   for DFT-D4:
   * E. Caldeweyher, C. Bannwarth and S. Grimme, J. Chem. Phys., 2017,
     147, 034112. DOI: 10.1063/1.4993215
   * E. Caldeweyher, S. Ehlert, A. Hansen, H. Neugebauer, S. Spicher,
     C. Bannwarth and S. Grimme, J. Chem. Phys., 2019, 150, 154122.
     DOI: 10.1063/1.5090222
   * E. Caldeweyher, J.-M. Mewes, S. Ehlert and S. Grimme, Phys. Chem. Chem. Phys.
     2020, 22, 8499-8512. DOI: 10.1039/D0CP00502A
   
   for sTDA-xTB:
   * S. Grimme and C. Bannwarth, J. Chem. Phys., 2016, 145, 054103.
     DOI: 10.1063/1.4959605
   
   in the mass-spec context:
   * V. Asgeirsson, C. Bauer and S. Grimme, Chem. Sci., 2017, 8, 4879.
     DOI: 10.1039/c7sc00601b
   * J. Koopman and S. Grimme, ACS Omega 2019, 4, 12, 15120-15133.
     DOI: 10.1021/acsomega.9b02011
   
   for metadynamics refer to:
   * S. Grimme, J. Chem. Theory Comput., 2019, 155, 2847-2862
     DOI: 10.1021/acs.jctc.9b00143
   
   for SPH calculations refer to:
   * S. Spicher and S. Grimme, J. Chem. Theory Comput., 2021, 17, 1701-1714
     DOI: 10.1021/acs.jctc.0c01306
   
   for ONIOM refer to:
   * C. Plett, A. Katbashev, S. Ehlert, S. Grimme, M. Bursch,
     Phys. Chem. Chem. Phys., 2023, 25, 17860-17868. DOI: 10.1039/D3CP02178E
   
   for DIPRO refer to:
   * J. Kohn, N. Gildemeister, S. Grimme, D. Fazzi, A. Hansen,
     J. Chem. Phys., 2023, just accepted.
   
   for PTB refer to:
   * S. Grimme, M. Mueller, A. Hansen, J. Chem. Phys., 2023, 158, 124111.
     DOI: 10.1063/5.0137838
   
   with help from (in alphabetical order)
   P. Atkinson, C. Bannwarth, F. Bohle, G. Brandenburg, E. Caldeweyher
   M. Checinski, S. Dohm, S. Ehlert, S. Ehrlich, I. Gerasimov, C. Hölzer
   A. Katbashev, J. Kohn, J. Koopman, C. Lavigne, S. Lehtola, F. März, M. Müller,
   F. Musil, H. Neugebauer, J. Pisarek, C. Plett, P. Pracht, F. Pultar,
   J. Seibert, P. Shushkov, S. Spicher, M. Stahn, M. Steiner, T. Strunk,
   J. Stückrath, T. Rose, and J. Unsleber
   
 * started run on 2025/07/14 at 11:36:34.540     
   ID    Z sym.   atoms
    1   15 P      1
    2    6 C      2, 5, 9-14, 20, 23
    3    1 H      3, 4, 6-8, 15-19, 21, 22, 24-26

           -------------------------------------------------
          |                Calculation Setup                |
           -------------------------------------------------

          program call               : /home/minenky/programs/xtb/xtb-dist/bin/xtb m1_00_PEt2Ph-PBE0-D3-TZ-uniMM_63.xyz --charge 0 --T --ohess extreme --cycles 5000 --acc 0.01 --iterations 5000
          coordinate file            : m1_00_PEt2Ph-PBE0-D3-TZ-uniMM_63.xyz
          omp threads                :                    12

########################################################################
[WARNING] Please study the warnings concerning your input carefully
-1- prog_main_parseArguments: Unknown option '--T' provided
########################################################################

           -------------------------------------------------
          |                 G F N 2 - x T B                 |
           -------------------------------------------------

        Reference                      10.1021/acs.jctc.8b01176
      * Hamiltonian:
        H0-scaling (s, p, d)           1.850000    2.230000    2.230000
        zeta-weighting                 0.500000
      * Dispersion:
        s8                             2.700000
        a1                             0.520000
        a2                             5.000000
        s9                             5.000000
      * Repulsion:
        kExp                           1.500000    1.000000
        rExp                           1.000000
      * Coulomb:
        alpha                          2.000000
        third order                    shell-resolved
        anisotropic                    true
        a3                             3.000000
        a5                             4.000000
        cn-shift                       1.200000
        cn-exp                         4.000000
        max-rad                        5.000000


          ...................................................
          :                      SETUP                      :
          :.................................................:
          :  # basis functions                  65          :
          :  # atomic orbitals                  64          :
          :  # shells                           38          :
          :  # electrons                        60          :
          :  max. iterations                  5000          :
          :  Hamiltonian                  GFN2-xTB          :
          :  restarted?                      false          :
          :  GBSA solvation                  false          :
          :  PC potential                    false          :
          :  electronic temp.          300.0000000     K    :
          :  accuracy                    0.0100000          :
          :  -> integral cutoff          0.4500000E+02      :
          :  -> integral neglect         0.1000000E-09      :
          :  -> SCF convergence          0.1000000E-07 Eh   :
          :  -> wf. convergence          0.1000000E-05 e    :
          :  Broyden damping             0.4000000          :
          :  net charge                          0          :
          :  unpaired electrons                  0          :
          ...................................................

 iter      E             dE          RMSdq      gap      omega  full diag
   1    -32.0020105 -0.320020E+02  0.367E+00    3.95       0.0  T
   2    -32.0448089 -0.427983E-01  0.215E+00    3.49       1.0  T
   3    -32.0444382  0.370656E-03  0.893E-01    3.24       1.0  T
   4    -32.0456274 -0.118917E-02  0.282E-01    3.27       1.0  T
   5    -32.0469530 -0.132562E-02  0.117E-01    3.31       1.0  T
   6    -32.0471480 -0.194979E-03  0.408E-02    3.30       1.0  T
   7    -32.0471616 -0.136737E-04  0.156E-02    3.30       1.3  T
   8    -32.0471628 -0.111675E-05  0.691E-03    3.30       2.8  T
   9    -32.0471632 -0.478992E-06  0.142E-03    3.30      13.8  T
  10    -32.0471633 -0.236343E-07  0.636E-04    3.30      30.8  T
  11    -32.0471633 -0.113640E-08  0.241E-04    3.30      81.4  T
  12    -32.0471633 -0.508528E-09  0.454E-05    3.30     431.7  T
  13    -32.0471633 -0.488143E-11  0.217E-05    3.30     903.1  T
  14    -32.0471633 -0.191847E-11  0.856E-06    3.30    2291.8  T
  15    -32.0471633 -0.611067E-12  0.332E-06    3.30    5905.5  T

   *** convergence criteria satisfied after 15 iterations ***

         #    Occupation            Energy/Eh            Energy/eV
      -------------------------------------------------------------
         1        2.0000           -0.6593299             -17.9413
       ...           ...                  ...                  ...
        24        2.0000           -0.4293179             -11.6823
        25        2.0000           -0.4249471             -11.5634
        26        2.0000           -0.4161771             -11.3248
        27        2.0000           -0.4092381             -11.1359
        28        2.0000           -0.4026799             -10.9575
        29        2.0000           -0.3978788             -10.8268
        30        2.0000           -0.3529512              -9.6043 (HOMO)
        31                         -0.2315314              -6.3003 (LUMO)
        32                         -0.2228646              -6.0645
        33                         -0.1505369              -4.0963
        34                         -0.1410092              -3.8371
        35                         -0.0933008              -2.5388
       ...                                ...                  ...
        64                          0.7690491              20.9269
      -------------------------------------------------------------
                  HL-Gap            0.1214198 Eh            3.3040 eV
             Fermi-level           -0.2922413 Eh           -7.9523 eV

 SCC (total)                   0 d,  0 h,  0 min,  0.087 sec
 SCC setup                      ...        0 min,  0.000 sec (  0.165%)
 Dispersion                     ...        0 min,  0.000 sec (  0.141%)
 classical contributions        ...        0 min,  0.000 sec (  0.012%)
 integral evaluation            ...        0 min,  0.002 sec (  2.169%)
 iterations                     ...        0 min,  0.083 sec ( 95.315%)
 molecular gradient             ...        0 min,  0.002 sec (  2.090%)
 printout                       ...        0 min,  0.000 sec (  0.090%)

         :::::::::::::::::::::::::::::::::::::::::::::::::::::
         ::                     SUMMARY                     ::
         :::::::::::::::::::::::::::::::::::::::::::::::::::::
         :: total energy             -31.531944524332 Eh    ::
         :: gradient norm              0.053406826067 Eh/a0 ::
         :: HOMO-LUMO gap              3.304000886621 eV    ::
         ::.................................................::
         :: SCC energy               -32.046993587644 Eh    ::
         :: -> isotropic ES            0.004609327940 Eh    ::
         :: -> anisotropic ES          0.005992416955 Eh    ::
         :: -> anisotropic XC          0.022404710556 Eh    ::
         :: -> dispersion             -0.023589615656 Eh    ::
         :: repulsion energy           0.515049063312 Eh    ::
         :: add. restraining           0.000000000000 Eh    ::
         :: total charge               0.000000000000 e     ::
         :::::::::::::::::::::::::::::::::::::::::::::::::::::

      ----------------------------------------------------------- 
     |                   =====================                   |
     |                        A N C O P T                        |
     |                   =====================                   |
     |               Approximate Normal Coordinate               |
     |                Rational Function Optimizer                |
      ----------------------------------------------------------- 
      ----------------------------------------------------------- 
     |                   =====================                   |
     |                        A N C O P T                        |
     |                   =====================                   |
     |               Approximate Normal Coordinate               |
     |                Rational Function Optimizer                |
      ----------------------------------------------------------- 

          ...................................................
          :                      SETUP                      :
          :.................................................:
          :   optimization level           extreme          :
          :   max. optcycles                  5000          :
          :   ANC micro-cycles                  20          :
          :   degrees of freedom                72          :
          :.................................................:
          :   RF solver                   davidson          :
          :   write xtbopt.log                true          :
          :   linear?                        false          :
          :   energy convergence         0.5000000E-07 Eh   :
          :   grad. convergence          0.5000000E-04 Eh/α :
          :   maxmium RF displ.          1.0000000          :
          :   Hlow (freq-cutoff)         0.1000000E-01      :
          :   Hmax (freq-cutoff)         5.0000000          :
          :   S6 in model hess.         20.0000000          :
          ...................................................

generating ANC from model Hessian ...
Using Lindh-Hessian (1995)
 Shifting diagonal of input Hessian by   1.090964798721461E-002
 Lowest  eigenvalues of input Hessian
    0.010000    0.000000    0.000000    0.000000    0.000000    0.000000
    0.000000    0.011001    0.011947    0.012410    0.012704    0.015022
    0.016473    0.019687    0.019780    0.021301    0.022369    0.025323
 Highest eigenvalues
    1.348558    1.536526    1.563509    1.865657    1.967420    1.987284
 

........................................................................
.............................. CYCLE    1 ..............................
........................................................................

 iter      E             dE          RMSdq      gap      omega  full diag
   1    -32.0471633 -0.320472E+02  0.934E-07    3.30       0.0  T
   2    -32.0471633  0.000000E+00  0.567E-07    3.30   34613.2  T
   3    -32.0471633  0.142109E-13  0.353E-07    3.30   55557.9  T
     SCC iter.                  ...        0 min,  0.074 sec
     gradient                   ...        0 min,  0.002 sec
 * total energy  :   -31.5319445 Eh     change       -0.6394885E-13 Eh
   gradient norm :     0.0534068 Eh/α   predicted     0.0000000E+00 (-100.00%)
   displ. norm   :     0.5690002 α      lambda       -0.1705290E-01
   maximum displ.:     0.3261009 α      in ANC's #6, #1, #2, ...

........................................................................
.............................. CYCLE    2 ..............................
........................................................................

 iter      E             dE          RMSdq      gap      omega  full diag
   1    -32.0590609 -0.320591E+02  0.390E-01    3.51       0.0  T
   2    -32.0593199 -0.259006E-03  0.193E-01    3.56       1.0  T
   3    -32.0593406 -0.206859E-04  0.662E-02    3.58       1.0  T
   4    -32.0593511 -0.104479E-04  0.406E-02    3.58       1.0  T
   5    -32.0593567 -0.562055E-05  0.113E-02    3.58       1.7  T
   6    -32.0593588 -0.214668E-05  0.465E-03    3.58       4.2  T
   7    -32.0593589 -0.648708E-07  0.144E-03    3.58      13.7  T
   8    -32.0593589 -0.727857E-08  0.706E-04    3.58      27.8  T
   9    -32.0593589 -0.711606E-08  0.153E-04    3.58     127.9  T
  10    -32.0593589 -0.984883E-10  0.629E-05    3.58     311.7  T
  11    -32.0593589 -0.247908E-10  0.201E-05    3.58     977.6  T
  12    -32.0593589 -0.132871E-11  0.980E-06    3.58    2000.8  T
  13    -32.0593589 -0.355271E-12  0.310E-06    3.58    6328.8  T
     SCC iter.                  ...        0 min,  0.076 sec
     gradient                   ...        0 min,  0.002 sec
 * total energy  :   -31.5419588 Eh     change       -0.1001424E-01 Eh
   gradient norm :     0.0184447 Eh/α   predicted    -0.1128705E-01 (  12.71%)
   displ. norm   :     0.4326112 α      lambda       -0.3863090E-02
   maximum displ.:     0.2642825 α      in ANC's #1, #6, #8, ...

........................................................................
.............................. CYCLE    3 ..............................
........................................................................

 iter      E             dE          RMSdq      gap      omega  full diag
   1    -32.0623108 -0.320623E+02  0.128E-01    3.58       0.0  T
   2    -32.0623203 -0.951478E-05  0.759E-02    3.58       1.0  T
   3    -32.0623199  0.343781E-06  0.187E-02    3.57       1.1  T
   4    -32.0623218 -0.183646E-05  0.476E-03    3.57       4.1  T
   5    -32.0623218 -0.294572E-07  0.226E-03    3.57       8.7  T
   6    -32.0623218 -0.273496E-07  0.113E-03    3.57      17.3  T
   7    -32.0623218 -0.194657E-08  0.391E-04    3.57      50.1  T
   8    -32.0623218 -0.167686E-08  0.134E-04    3.57     146.0  T
   9    -32.0623218 -0.121076E-09  0.446E-05    3.57     439.8  T
  10    -32.0623218 -0.883205E-11  0.120E-05    3.57    1632.6  T
  11    -32.0623218 -0.125766E-11  0.697E-06    3.57    2813.5  T
  12    -32.0623218 -0.234479E-12  0.196E-06    3.57    9995.2  T
     SCC iter.                  ...        0 min,  0.076 sec
     gradient                   ...        0 min,  0.002 sec
 * total energy  :   -31.5448158 Eh     change       -0.2857077E-02 Eh
   gradient norm :     0.0088689 Eh/α   predicted    -0.2293422E-02 ( -19.73%)
   displ. norm   :     0.4422459 α      lambda       -0.2153575E-02
   maximum displ.:     0.2391008 α      in ANC's #1, #6, #8, ...

........................................................................
.............................. CYCLE    4 ..............................
........................................................................

 iter      E             dE          RMSdq      gap      omega  full diag
   1    -32.0625476 -0.320625E+02  0.119E-01    3.59       0.0  T
   2    -32.0625561 -0.850025E-05  0.689E-02    3.60       1.0  T
   3    -32.0625548  0.121797E-05  0.164E-02    3.60       1.2  T
   4    -32.0625568 -0.193972E-05  0.790E-03    3.60       2.5  T
   5    -32.0625574 -0.639424E-06  0.268E-03    3.60       7.3  T
   6    -32.0625575 -0.119679E-06  0.119E-03    3.60      16.4  T
   7    -32.0625575 -0.195472E-08  0.410E-04    3.60      47.8  T
   8    -32.0625575 -0.808932E-09  0.144E-04    3.60     135.8  T
   9    -32.0625575 -0.106972E-09  0.402E-05    3.60     487.7  T
  10    -32.0625575 -0.185665E-10  0.151E-05    3.60    1295.2  T
  11    -32.0625575 -0.219558E-11  0.439E-06    3.60    4463.0  T
  12    -32.0625575 -0.994760E-13  0.131E-06    3.60   14915.2  T
     SCC iter.                  ...        0 min,  0.076 sec
     gradient                   ...        0 min,  0.002 sec
 * total energy  :   -31.5462807 Eh     change       -0.1464870E-02 Eh
   gradient norm :     0.0082782 Eh/α   predicted    -0.1287295E-02 ( -12.12%)
   displ. norm   :     0.3118178 α      lambda       -0.7909372E-03
   maximum displ.:     0.1930332 α      in ANC's #1, #6, #8, ...

........................................................................
.............................. CYCLE    5 ..............................
........................................................................

 iter      E             dE          RMSdq      gap      omega  full diag
   1    -32.0636159 -0.320636E+02  0.736E-02    3.58       0.0  T
   2    -32.0636186 -0.270161E-05  0.445E-02    3.58       1.0  T
   3    -32.0636174  0.116842E-05  0.102E-02    3.58       1.9  T
   4    -32.0636189 -0.152665E-05  0.373E-03    3.58       5.3  T
   5    -32.0636191 -0.181192E-06  0.179E-03    3.58      10.9  T
   6    -32.0636192 -0.318816E-07  0.589E-04    3.58      33.3  T
   7    -32.0636192 -0.274184E-09  0.198E-04    3.58      98.9  T
   8    -32.0636192 -0.255561E-09  0.862E-05    3.58     227.4  T
   9    -32.0636192 -0.147367E-10  0.219E-05    3.58     893.9  T
  10    -32.0636192 -0.299138E-11  0.836E-06    3.58    2346.7  T
  11    -32.0636192 -0.101608E-11  0.276E-06    3.58    7103.6  T
     SCC iter.                  ...        0 min,  0.075 sec
     gradient                   ...        0 min,  0.002 sec
 * total energy  :   -31.5468277 Eh     change       -0.5469962E-03 Eh
   gradient norm :     0.0059579 Eh/α   predicted    -0.4339115E-03 ( -20.67%)
   displ. norm   :     0.2473369 α      lambda       -0.3888717E-03
   maximum displ.:     0.1514160 α      in ANC's #1, #2, #4, ...

........................................................................
.............................. CYCLE    6 ..............................
........................................................................

 iter      E             dE          RMSdq      gap      omega  full diag
   1    -32.0651547 -0.320652E+02  0.638E-02    3.59       0.0  T
   2    -32.0651557 -0.957547E-06  0.381E-02    3.59       1.0  T
   3    -32.0651551  0.584288E-06  0.677E-03    3.59       2.9  T
   4    -32.0651558 -0.746334E-06  0.247E-03    3.59       7.9  T
   5    -32.0651559 -0.695450E-07  0.126E-03    3.59      15.6  T
   6    -32.0651559 -0.109812E-07  0.300E-04    3.59      65.4  T
   7    -32.0651559  0.515286E-10  0.140E-04    3.59     139.8  T
   8    -32.0651559 -0.129546E-09  0.386E-05    3.59     507.9  T
   9    -32.0651559 -0.522249E-11  0.152E-05    3.59    1293.5  T
  10    -32.0651559 -0.323297E-11  0.581E-06    3.59    3375.9  T
  11    -32.0651559 -0.284217E-12  0.207E-06    3.59    9453.2  T
     SCC iter.                  ...        0 min,  0.075 sec
     gradient                   ...        0 min,  0.002 sec
 * total energy  :   -31.5471091 Eh     change       -0.2813833E-03 Eh
   gradient norm :     0.0039889 Eh/α   predicted    -0.2063284E-03 ( -26.67%)
   displ. norm   :     0.2611914 α      lambda       -0.2880925E-03
   maximum displ.:     0.1575495 α      in ANC's #1, #4, #2, ...

........................................................................
.............................. CYCLE    7 ..............................
........................................................................

 iter      E             dE          RMSdq      gap      omega  full diag
   1    -32.0664986 -0.320665E+02  0.640E-02    3.59       0.0  T
   2    -32.0664997 -0.108043E-05  0.379E-02    3.59       1.0  T
   3    -32.0664993  0.353075E-06  0.654E-03    3.59       3.0  T
   4    -32.0664999 -0.519735E-06  0.207E-03    3.59       9.5  T
   5    -32.0664999 -0.249578E-07  0.118E-03    3.59      16.7  T
   6    -32.0664999 -0.196151E-07  0.345E-04    3.59      56.9  T
   7    -32.0664999  0.990141E-10  0.119E-04    3.59     164.6  T
   8    -32.0664999 -0.185743E-09  0.446E-05    3.59     440.0  T
   9    -32.0664999 -0.303118E-10  0.119E-05    3.59    1645.1  T
  10    -32.0664999 -0.397904E-12  0.356E-06    3.59    5512.9  T
  11    -32.0664999 -0.355271E-13  0.129E-06    3.59   15219.1  T
     SCC iter.                  ...        0 min,  0.075 sec
     gradient                   ...        0 min,  0.002 sec
 * total energy  :   -31.5473300 Eh     change       -0.2209183E-03 Eh
   gradient norm :     0.0038897 Eh/α   predicted    -0.1538719E-03 ( -30.35%)
   displ. norm   :     0.3620971 α      lambda       -0.3301951E-03
   maximum displ.:     0.2028907 α      in ANC's #4, #1, #2, ...

........................................................................
.............................. CYCLE    8 ..............................
........................................................................

 iter      E             dE          RMSdq      gap      omega  full diag
   1    -32.0671570 -0.320672E+02  0.840E-02    3.59       0.0  T
   2    -32.0671581 -0.107288E-05  0.496E-02    3.60       1.0  T
   3    -32.0671577  0.357967E-06  0.709E-03    3.59       2.8  T
   4    -32.0671583 -0.562289E-06  0.211E-03    3.60       9.3  T
   5    -32.0671583 -0.190709E-08  0.120E-03    3.60      16.3  T
   6    -32.0671583 -0.222260E-07  0.393E-04    3.60      49.9  T
   7    -32.0671583 -0.222457E-09  0.118E-04    3.60     166.8  T
   8    -32.0671583 -0.177188E-09  0.420E-05    3.60     466.9  T
   9    -32.0671583 -0.213163E-10  0.154E-05    3.60    1269.7  T
  10    -32.0671583 -0.115108E-11  0.398E-06    3.60    4930.3  T
  11    -32.0671583 -0.106581E-12  0.156E-06    3.60   12573.3  T
     SCC iter.                  ...        0 min,  0.075 sec
     gradient                   ...        0 min,  0.002 sec
 * total energy  :   -31.5475836 Eh     change       -0.2535565E-03 Eh
   gradient norm :     0.0060744 Eh/α   predicted    -0.1867459E-03 ( -26.35%)
   displ. norm   :     0.3954572 α      lambda       -0.3551526E-03
   maximum displ.:     0.2375898 α      in ANC's #4, #2, #1, ...

........................................................................
.............................. CYCLE    9 ..............................
........................................................................

 iter      E             dE          RMSdq      gap      omega  full diag
   1    -32.0677023 -0.320677E+02  0.902E-02    3.60       0.0  T
   2    -32.0677031 -0.760706E-06  0.532E-02    3.60       1.0  T
   3    -32.0677030  0.111809E-06  0.550E-03    3.60       3.6  T
   4    -32.0677033 -0.275461E-06  0.183E-03    3.60      10.7  T
   5    -32.0677033 -0.153368E-07  0.980E-04    3.60      20.0  T
   6    -32.0677033 -0.126661E-07  0.383E-04    3.60      51.2  T
   7    -32.0677033 -0.387487E-09  0.794E-05    3.60     246.9  T
   8    -32.0677033 -0.506049E-10  0.364E-05    3.60     539.4  T
   9    -32.0677033 -0.102602E-10  0.146E-05    3.60    1345.5  T
  10    -32.0677033 -0.163425E-11  0.467E-06    3.60    4195.1  T
  11    -32.0677033 -0.170530E-12  0.194E-06    3.60   10117.7  T
     SCC iter.                  ...        0 min,  0.075 sec
     gradient                   ...        0 min,  0.002 sec
 * total energy  :   -31.5478520 Eh     change       -0.2683908E-03 Eh
   gradient norm :     0.0073782 Eh/α   predicted    -0.2053460E-03 ( -23.49%)
   displ. norm   :     0.3509271 α      lambda       -0.3317211E-03
   maximum displ.:     0.2079737 α      in ANC's #4, #2, #6, ...

........................................................................
.............................. CYCLE   10 ..............................
........................................................................

 iter      E             dE          RMSdq      gap      omega  full diag
   1    -32.0681557 -0.320682E+02  0.853E-02    3.60       0.0  T
   2    -32.0681563 -0.593739E-06  0.497E-02    3.60       1.0  T
   3    -32.0681561  0.167035E-06  0.472E-03    3.61       4.2  T
   4    -32.0681564 -0.286024E-06  0.211E-03    3.60       9.3  T
   5    -32.0681565 -0.578609E-07  0.943E-04    3.60      20.8  T
   6    -32.0681565 -0.250787E-08  0.282E-04    3.60      69.5  T
   7    -32.0681565 -0.271783E-09  0.896E-05    3.60     218.8  T
   8    -32.0681565 -0.979483E-10  0.366E-05    3.60     535.4  T
   9    -32.0681565 -0.903810E-11  0.164E-05    3.60    1192.4  T
  10    -32.0681565 -0.201794E-11  0.528E-06    3.60    3717.4  T
  11    -32.0681565 -0.156319E-12  0.238E-06    3.60    8236.8  T
     SCC iter.                  ...        0 min,  0.075 sec
     gradient                   ...        0 min,  0.003 sec
 * total energy  :   -31.5480916 Eh     change       -0.2396416E-03 Eh
   gradient norm :     0.0056942 Eh/α   predicted    -0.1862842E-03 ( -22.27%)
   displ. norm   :     0.2800412 α      lambda       -0.2202522E-03
   maximum displ.:     0.1438628 α      in ANC's #4, #2, #6, ...

........................................................................
.............................. CYCLE   11 ..............................
........................................................................

 iter      E             dE          RMSdq      gap      omega  full diag
   1    -32.0675693 -0.320676E+02  0.715E-02    3.61       0.0  T
   2    -32.0675697 -0.424350E-06  0.419E-02    3.61       1.0  T
   3    -32.0675694  0.296559E-06  0.485E-03    3.61       4.0  T
   4    -32.0675698 -0.416828E-06  0.184E-03    3.61      10.7  T
   5    -32.0675699 -0.322497E-07  0.860E-04    3.61      22.8  T
   6    -32.0675699 -0.214889E-08  0.267E-04    3.61      73.6  T
   7    -32.0675699 -0.106212E-09  0.799E-05    3.61     245.3  T
   8    -32.0675699 -0.572413E-10  0.381E-05    3.61     514.5  T
   9    -32.0675699 -0.105160E-10  0.123E-05    3.61    1593.1  T
  10    -32.0675699 -0.137135E-11  0.553E-06    3.61    3547.3  T
  11    -32.0675699 -0.206057E-12  0.219E-06    3.61    8945.6  T
     SCC iter.                  ...        0 min,  0.081 sec
     gradient                   ...        0 min,  0.002 sec
 * total energy  :   -31.5482449 Eh     change       -0.1532646E-03 Eh
   gradient norm :     0.0038494 Eh/α   predicted    -0.1187620E-03 ( -22.51%)
   displ. norm   :     0.2006439 α      lambda       -0.1663542E-03
   maximum displ.:     0.1253109 α      in ANC's #6, #2, #11, ...

........................................................................
.............................. CYCLE   12 ..............................
........................................................................

 iter      E             dE          RMSdq      gap      omega  full diag
   1    -32.0696786 -0.320697E+02  0.692E-02    3.61       0.0  T
   2    -32.0696801 -0.155382E-05  0.374E-02    3.61       1.0  T
   3    -32.0696798  0.262996E-06  0.112E-02    3.61       1.8  T
   4    -32.0696803 -0.473529E-06  0.229E-03    3.61       8.6  T
   5    -32.0696803 -0.500891E-08  0.134E-03    3.61      14.6  T
   6    -32.0696803 -0.169890E-07  0.568E-04    3.61      34.5  T
   7    -32.0696803 -0.673644E-09  0.149E-04    3.61     131.2  T
   8    -32.0696803 -0.218670E-09  0.465E-05    3.61     422.1  T
   9    -32.0696803 -0.334524E-10  0.188E-05    3.61    1041.9  T
  10    -32.0696803 -0.170530E-11  0.765E-06    3.61    2562.1  T
  11    -32.0696803 -0.348166E-12  0.309E-06    3.61    6343.8  T
     SCC iter.                  ...        0 min,  0.076 sec
     gradient                   ...        0 min,  0.002 sec
 * total energy  :   -31.5483278 Eh     change       -0.8292450E-04 Eh
   gradient norm :     0.0058430 Eh/α   predicted    -0.8652592E-04 (   4.34%)
   displ. norm   :     0.3482086 α      lambda       -0.2149853E-03
   maximum displ.:     0.1898168 α      in ANC's #2, #6, #4, ...

........................................................................
.............................. CYCLE   13 ..............................
........................................................................

 iter      E             dE          RMSdq      gap      omega  full diag
   1    -32.0660937 -0.320661E+02  0.852E-02    3.61       0.0  T
   2    -32.0660954 -0.170911E-05  0.495E-02    3.62       1.0  T
   3    -32.0660954 -0.207407E-07  0.792E-03    3.62       2.5  T
   4    -32.0660956 -0.195163E-06  0.261E-03    3.62       7.5  T
   5    -32.0660956 -0.259413E-07  0.166E-03    3.62      11.8  T
   6    -32.0660957 -0.378612E-07  0.522E-04    3.62      37.5  T
   7    -32.0660957 -0.892854E-09  0.129E-04    3.62     152.3  T
   8    -32.0660957 -0.992486E-10  0.570E-05    3.62     344.0  T
   9    -32.0660957 -0.171454E-10  0.237E-05    3.62     829.1  T
  10    -32.0660957 -0.650857E-11  0.640E-06    3.62    3062.9  T
  11    -32.0660957 -0.277112E-12  0.277E-06    3.62    7087.1  T
     SCC iter.                  ...        0 min,  0.075 sec
     gradient                   ...        0 min,  0.002 sec
 * total energy  :   -31.5484418 Eh     change       -0.1140613E-03 Eh
   gradient norm :     0.0070917 Eh/α   predicted    -0.1205300E-03 (   5.67%)
   displ. norm   :     0.1730713 α      lambda       -0.1923195E-03
   maximum displ.:     0.1075097 α      in ANC's #3, #6, #5, ...

........................................................................
.............................. CYCLE   14 ..............................
........................................................................

 iter      E             dE          RMSdq      gap      omega  full diag
   1    -32.0665381 -0.320665E+02  0.492E-02    3.62       0.0  T
   2    -32.0665385 -0.410481E-06  0.283E-02    3.62       1.0  T
   3    -32.0665385  0.341136E-07  0.387E-03    3.62       5.1  T
   4    -32.0665385 -0.442158E-07  0.179E-03    3.62      10.9  T
   5    -32.0665385 -0.488763E-07  0.499E-04    3.62      39.3  T
   6    -32.0665385 -0.887766E-09  0.264E-04    3.62      74.2  T
   7    -32.0665385 -0.176769E-09  0.620E-05    3.62     316.3  T
   8    -32.0665385 -0.448281E-10  0.198E-05    3.62     988.7  T
   9    -32.0665385 -0.559908E-11  0.956E-06    3.62    2051.8  T
  10    -32.0665385 -0.405009E-12  0.290E-06    3.62    6764.2  T
     SCC iter.                  ...        0 min,  0.075 sec
     gradient                   ...        0 min,  0.002 sec
 * total energy  :   -31.5486196 Eh     change       -0.1777385E-03 Eh
   gradient norm :     0.0067594 Eh/α   predicted    -0.9905033E-04 ( -44.27%)
   displ. norm   :     0.5740617 α      lambda       -0.6736812E-03
   maximum displ.:     0.3444342 α      in ANC's #3, #6, #5, ...

........................................................................
.............................. CYCLE   15 ..............................
........................................................................

 iter      E             dE          RMSdq      gap      omega  full diag
   1    -32.0651582 -0.320652E+02  0.161E-01    3.62       0.0  T
   2    -32.0651632 -0.498264E-05  0.934E-02    3.62       1.0  T
   3    -32.0651612  0.200919E-05  0.197E-02    3.62       1.0  T
   4    -32.0651641 -0.287231E-05  0.430E-03    3.62       4.6  T
   5    -32.0651641 -0.669844E-07  0.223E-03    3.62       8.8  T
   6    -32.0651642 -0.521573E-07  0.855E-04    3.62      22.9  T
   7    -32.0651642 -0.381451E-08  0.314E-04    3.62      62.5  T
   8    -32.0651642 -0.687471E-09  0.721E-05    3.62     271.8  T
   9    -32.0651642 -0.893436E-10  0.305E-05    3.62     642.3  T
  10    -32.0651642 -0.152767E-11  0.113E-05    3.62    1739.9  T
  11    -32.0651642 -0.112976E-11  0.373E-06    3.62    5253.2  T
  12    -32.0651642 -0.639488E-13  0.162E-06    3.62   12086.3  T
     SCC iter.                  ...        0 min,  0.076 sec
     gradient                   ...        0 min,  0.002 sec
 * total energy  :   -31.5491336 Eh     change       -0.5139896E-03 Eh
   gradient norm :     0.0092785 Eh/α   predicted    -0.4478471E-03 ( -12.87%)
   displ. norm   :     0.4632518 α      lambda       -0.4532707E-03
   maximum displ.:     0.2891032 α      in ANC's #3, #6, #2, ...

........................................................................
.............................. CYCLE   16 ..............................
........................................................................

 iter      E             dE          RMSdq      gap      omega  full diag
   1    -32.0639278 -0.320639E+02  0.126E-01    3.62       0.0  T
   2    -32.0639306 -0.274600E-05  0.740E-02    3.62       1.0  T
   3    -32.0639296  0.953502E-06  0.105E-02    3.62       1.9  T
   4    -32.0639309 -0.129250E-05  0.356E-03    3.62       5.5  T
   5    -32.0639310 -0.133270E-06  0.169E-03    3.62      11.6  T
   6    -32.0639311 -0.237642E-07  0.583E-04    3.62      33.6  T
   7    -32.0639311 -0.414275E-09  0.189E-04    3.62     103.9  T
   8    -32.0639311 -0.256982E-09  0.437E-05    3.62     448.6  T
   9    -32.0639311 -0.324576E-10  0.167E-05    3.62    1175.9  T
  10    -32.0639311 -0.547118E-12  0.826E-06    3.62    2373.6  T
  11    -32.0639311 -0.333955E-12  0.431E-06    3.62    4548.0  T
     SCC iter.                  ...        0 min,  0.075 sec
     gradient                   ...        0 min,  0.002 sec
 * total energy  :   -31.5494456 Eh     change       -0.3120558E-03 Eh
   gradient norm :     0.0127069 Eh/α   predicted    -0.2752750E-03 ( -11.79%)
   displ. norm   :     0.2983588 α      lambda       -0.4987961E-03
   maximum displ.:     0.1985765 α      in ANC's #3, #2, #6, ...

........................................................................
.............................. CYCLE   17 ..............................
........................................................................

 iter      E             dE          RMSdq      gap      omega  full diag
   1    -32.0687944 -0.320688E+02  0.942E-02    3.63       0.0  T
   2    -32.0687971 -0.274762E-05  0.555E-02    3.63       1.0  T
   3    -32.0687959  0.124710E-05  0.126E-02    3.63       1.6  T
   4    -32.0687976 -0.168429E-05  0.292E-03    3.63       6.7  T
   5    -32.0687976 -0.372209E-07  0.213E-03    3.63       9.2  T
   6    -32.0687976 -0.354277E-07  0.640E-04    3.63      30.7  T
   7    -32.0687976 -0.930015E-09  0.122E-04    3.63     160.6  T
   8    -32.0687976 -0.171170E-10  0.573E-05    3.63     342.3  T
   9    -32.0687976 -0.136851E-10  0.218E-05    3.63     900.9  T
  10    -32.0687976 -0.368061E-11  0.898E-06    3.63    2185.0  T
  11    -32.0687976 -0.646594E-12  0.277E-06    3.63    7071.7  T
     SCC iter.                  ...        0 min,  0.075 sec
     gradient                   ...        0 min,  0.002 sec
 * total energy  :   -31.5497620 Eh     change       -0.3163512E-03 Eh
   gradient norm :     0.0101677 Eh/α   predicted    -0.2716023E-03 ( -14.15%)
   displ. norm   :     0.7159021 α      lambda       -0.7916461E-03
   maximum displ.:     0.3897151 α      in ANC's #3, #6, #2, ...

........................................................................
.............................. CYCLE   18 ..............................
........................................................................

 iter      E             dE          RMSdq      gap      omega  full diag
   1    -32.0629344 -0.320629E+02  0.204E-01    3.64       0.0  T
   2    -32.0629400 -0.557642E-05  0.117E-01    3.64       1.0  T
   3    -32.0629396  0.443305E-06  0.190E-02    3.64       1.0  T
   4    -32.0629412 -0.163210E-05  0.427E-03    3.64       4.6  T
   5    -32.0629412 -0.998259E-08  0.211E-03    3.64       9.3  T
   6    -32.0629412 -0.228296E-07  0.964E-04    3.64      20.4  T
   7    -32.0629412 -0.518434E-08  0.311E-04    3.64      63.1  T
   8    -32.0629412 -0.148636E-08  0.101E-04    3.64     193.2  T
   9    -32.0629412 -0.423910E-10  0.467E-05    3.64     420.4  T
  10    -32.0629412 -0.103952E-10  0.145E-05    3.64    1350.8  T
  11    -32.0629412 -0.273559E-11  0.563E-06    3.64    3484.5  T
  12    -32.0629412 -0.170530E-12  0.140E-06    3.64   14041.7  T
     SCC iter.                  ...        0 min,  0.076 sec
     gradient                   ...        0 min,  0.002 sec
 * total energy  :   -31.5501412 Eh     change       -0.3792614E-03 Eh
   gradient norm :     0.0149173 Eh/α   predicted    -0.5986900E-03 (  57.86%)
   displ. norm   :     0.1672183 α      lambda       -0.7962465E-03
   maximum displ.:     0.0826080 α      in ANC's #3, #6, #8, ...

........................................................................
.............................. CYCLE   19 ..............................
........................................................................

 iter      E             dE          RMSdq      gap      omega  full diag
   1    -32.0703321 -0.320703E+02  0.885E-02    3.64       0.0  T
   2    -32.0703387 -0.662275E-05  0.499E-02    3.64       1.0  T
   3    -32.0703385  0.251977E-06  0.213E-02    3.64       1.0  T
   4    -32.0703398 -0.136887E-05  0.420E-03    3.64       4.7  T
   5    -32.0703398 -0.178074E-07  0.218E-03    3.64       9.0  T
   6    -32.0703398 -0.828154E-08  0.985E-04    3.64      19.9  T
   7    -32.0703399 -0.108950E-07  0.228E-04    3.64      86.1  T
   8    -32.0703399 -0.238344E-09  0.792E-05    3.64     247.6  T
   9    -32.0703399 -0.743015E-10  0.385E-05    3.64     510.0  T
  10    -32.0703399 -0.586908E-11  0.116E-05    3.64    1695.7  T
  11    -32.0703399 -0.859757E-12  0.603E-06    3.64    3250.0  T
  12    -32.0703399 -0.433431E-12  0.140E-06    3.64   13982.6  T
     SCC iter.                  ...        0 min,  0.076 sec
     gradient                   ...        0 min,  0.002 sec
 * total energy  :   -31.5505728 Eh     change       -0.4315973E-03 Eh
   gradient norm :     0.0102585 Eh/α   predicted    -0.4092562E-03 (  -5.18%)
   displ. norm   :     0.4195010 α      lambda       -0.5224723E-03
   maximum displ.:     0.2633905 α      in ANC's #3, #6, #2, ...

........................................................................
.............................. CYCLE   20 ..............................
........................................................................

 iter      E             dE          RMSdq      gap      omega  full diag
   1    -32.0684457 -0.320684E+02  0.147E-01    3.64       0.0  T
   2    -32.0684474 -0.173287E-05  0.854E-02    3.64       1.0  T
   3    -32.0684472  0.234892E-06  0.746E-03    3.64       2.6  T
   4    -32.0684477 -0.554729E-06  0.317E-03    3.64       6.2  T
   5    -32.0684479 -0.117348E-06  0.111E-03    3.64      17.6  T
   6    -32.0684479 -0.983987E-08  0.526E-04    3.64      37.3  T
   7    -32.0684479 -0.118241E-08  0.214E-04    3.64      91.8  T
   8    -32.0684479 -0.405400E-09  0.498E-05    3.64     394.2  T
   9    -32.0684479 -0.389377E-10  0.207E-05    3.64     949.3  T
  10    -32.0684479 -0.307665E-11  0.712E-06    3.64    2752.9  T
  11    -32.0684479 -0.859757E-12  0.264E-06    3.64    7416.6  T
     SCC iter.                  ...        0 min,  0.084 sec
     gradient                   ...        0 min,  0.002 sec
 * total energy  :   -31.5509329 Eh     change       -0.3600991E-03 Eh
   gradient norm :     0.0092282 Eh/α   predicted    -0.3072116E-03 ( -14.69%)
   displ. norm   :     0.4680148 α      lambda       -0.5633028E-03
   maximum displ.:     0.2635437 α      in ANC's #2, #3, #6, ...
 * RMSD in coord.:     0.9532914 α      energy gain  -0.1898842E-01 Eh

generating ANC from model Hessian ...
Using Lindh-Hessian (1995)
 Shifting diagonal of input Hessian by   9.327841786016920E-003
 Lowest  eigenvalues of input Hessian
    0.000000    0.000000    0.000000    0.000000    0.000000    0.000000
    0.010000    0.010551    0.011097    0.011331    0.011806    0.012803
    0.015667    0.017826    0.018443    0.019463    0.020590    0.024389
 Highest eigenvalues
    1.356635    1.543439    1.570829    1.874580    1.978219    1.996741
 

........................................................................
.............................. CYCLE   21 ..............................
........................................................................

 iter      E             dE          RMSdq      gap      omega  full diag
   1    -32.0680460 -0.320680E+02  0.164E-01    3.64       0.0  T
   2    -32.0680503 -0.435528E-05  0.937E-02    3.65       1.0  T
   3    -32.0680499  0.403737E-06  0.125E-02    3.64       1.6  T
   4    -32.0680509 -0.995359E-06  0.396E-03    3.65       4.9  T
   5    -32.0680510 -0.106410E-06  0.139E-03    3.65      14.1  T
   6    -32.0680511 -0.123874E-07  0.854E-04    3.65      23.0  T
   7    -32.0680511 -0.765879E-08  0.238E-04    3.65      82.6  T
   8    -32.0680511 -0.181963E-09  0.868E-05    3.65     226.0  T
   9    -32.0680511 -0.547402E-10  0.412E-05    3.65     476.0  T
  10    -32.0680511 -0.506617E-11  0.129E-05    3.65    1517.8  T
  11    -32.0680511 -0.238032E-11  0.601E-06    3.65    3265.2  T
  12    -32.0680511 -0.781597E-13  0.146E-06    3.65   13468.0  T
     SCC iter.                  ...        0 min,  0.076 sec
     gradient                   ...        0 min,  0.002 sec
 * total energy  :   -31.5512572 Eh     change       -0.3242278E-03 Eh
   gradient norm :     0.0100389 Eh/α   predicted     0.0000000E+00 (-100.00%)
   displ. norm   :     0.0984780 α      lambda       -0.3623727E-03
   maximum displ.:     0.0550367 α      in ANC's #4, #6, #2, ...

........................................................................
.............................. CYCLE   22 ..............................
........................................................................

 iter      E             dE          RMSdq      gap      omega  full diag
   1    -32.0712700 -0.320713E+02  0.445E-02    3.65       0.0  T
   2    -32.0712713 -0.130137E-05  0.248E-02    3.64       1.0  T
   3    -32.0712713  0.412339E-08  0.751E-03    3.64       2.6  T
   4    -32.0712715 -0.213683E-06  0.263E-03    3.64       7.5  T
   5    -32.0712715 -0.132712E-07  0.108E-03    3.64      18.2  T
   6    -32.0712715 -0.805986E-08  0.673E-04    3.64      29.2  T
   7    -32.0712715 -0.213532E-08  0.131E-04    3.64     149.7  T
   8    -32.0712715 -0.555076E-10  0.595E-05    3.64     329.4  T
   9    -32.0712715 -0.545626E-10  0.950E-06    3.64    2064.6  T
  10    -32.0712715 -0.104450E-11  0.438E-06    3.64    4474.7  T
     SCC iter.                  ...        0 min,  0.075 sec
     gradient                   ...        0 min,  0.002 sec
 * total energy  :   -31.5515057 Eh     change       -0.2484878E-03 Eh
   gradient norm :     0.0028620 Eh/α   predicted    -0.1829438E-03 ( -26.38%)
   displ. norm   :     0.1659933 α      lambda       -0.2176120E-03
   maximum displ.:     0.1034116 α      in ANC's #4, #6, #2, ...

........................................................................
.............................. CYCLE   23 ..............................
........................................................................

 iter      E             dE          RMSdq      gap      omega  full diag
   1    -32.0729089 -0.320729E+02  0.464E-02    3.65       0.0  T
   2    -32.0729094 -0.464899E-06  0.273E-02    3.65       1.0  T
   3    -32.0729092  0.149133E-06  0.537E-03    3.65       3.7  T
   4    -32.0729095 -0.238409E-06  0.178E-03    3.65      11.0  T
   5    -32.0729095 -0.544572E-08  0.890E-04    3.65      22.0  T
   6    -32.0729095 -0.910784E-08  0.491E-04    3.65      39.9  T
   7    -32.0729095 -0.931472E-09  0.800E-05    3.65     245.2  T
   8    -32.0729095 -0.628830E-10  0.331E-05    3.65     592.3  T
   9    -32.0729095 -0.697042E-11  0.976E-06    3.65    2009.1  T
  10    -32.0729095 -0.952127E-12  0.281E-06    3.65    6985.6  T
     SCC iter.                  ...        0 min,  0.076 sec
     gradient                   ...        0 min,  0.002 sec
 * total energy  :   -31.5516726 Eh     change       -0.1669190E-03 Eh
   gradient norm :     0.0034506 Eh/α   predicted    -0.1118731E-03 ( -32.98%)
   displ. norm   :     0.2815982 α      lambda       -0.2601775E-03
   maximum displ.:     0.1715975 α      in ANC's #4, #6, #2, ...

........................................................................
.............................. CYCLE   24 ..............................
........................................................................

 iter      E             dE          RMSdq      gap      omega  full diag
   1    -32.0726723 -0.320727E+02  0.736E-02    3.65       0.0  T
   2    -32.0726731 -0.780517E-06  0.430E-02    3.65       1.0  T
   3    -32.0726730  0.752139E-07  0.474E-03    3.64       4.1  T
   4    -32.0726731 -0.139941E-06  0.244E-03    3.65       8.0  T
   5    -32.0726732 -0.457180E-07  0.101E-03    3.65      19.4  T
   6    -32.0726732 -0.142810E-07  0.494E-04    3.65      39.7  T
   7    -32.0726732 -0.643389E-09  0.103E-04    3.65     191.0  T
   8    -32.0726732 -0.106134E-09  0.299E-05    3.65     656.9  T
   9    -32.0726732 -0.757439E-11  0.109E-05    3.65    1793.0  T
  10    -32.0726732 -0.703437E-12  0.532E-06    3.65    3686.9  T
  11    -32.0726732 -0.639488E-13  0.211E-06    3.65    9284.6  T
     SCC iter.                  ...        0 min,  0.076 sec
     gradient                   ...        0 min,  0.002 sec
 * total energy  :   -31.5518857 Eh     change       -0.2131362E-03 Eh
   gradient norm :     0.0070084 Eh/α   predicted    -0.1404047E-03 ( -34.12%)
   displ. norm   :     0.3561981 α      lambda       -0.3039118E-03
   maximum displ.:     0.2181411 α      in ANC's #4, #2, #6, ...

........................................................................
.............................. CYCLE   25 ..............................
........................................................................

 iter      E             dE          RMSdq      gap      omega  full diag
   1    -32.0703998 -0.320704E+02  0.944E-02    3.64       0.0  T
   2    -32.0704009 -0.115359E-05  0.549E-02    3.64       1.0  T
   3    -32.0704008  0.735742E-07  0.598E-03    3.64       3.3  T
   4    -32.0704010 -0.193375E-06  0.265E-03    3.64       7.4  T
   5    -32.0704011 -0.506806E-07  0.103E-03    3.64      18.9  T
   6    -32.0704011 -0.118942E-07  0.631E-04    3.64      31.1  T
   7    -32.0704011 -0.270887E-08  0.157E-04    3.64     124.5  T
   8    -32.0704011 -0.106667E-09  0.410E-05    3.64     478.8  T
   9    -32.0704011 -0.203642E-10  0.186E-05    3.64    1055.9  T
  10    -32.0704011 -0.117950E-11  0.608E-06    3.64    3226.8  T
  11    -32.0704011 -0.284217E-12  0.318E-06    3.64    6169.0  T
     SCC iter.                  ...        0 min,  0.076 sec
     gradient                   ...        0 min,  0.002 sec
 * total energy  :   -31.5521082 Eh     change       -0.2225210E-03 Eh
   gradient norm :     0.0088959 Eh/α   predicted    -0.1712370E-03 ( -23.05%)
   displ. norm   :     0.2576970 α      lambda       -0.2510305E-03
   maximum displ.:     0.1693060 α      in ANC's #4, #2, #6, ...

........................................................................
.............................. CYCLE   26 ..............................
........................................................................

 iter      E             dE          RMSdq      gap      omega  full diag
   1    -32.0698232 -0.320698E+02  0.729E-02    3.63       0.0  T
   2    -32.0698238 -0.540335E-06  0.421E-02    3.63       1.0  T
   3    -32.0698238  0.279547E-07  0.429E-03    3.63       4.6  T
   4    -32.0698239 -0.112502E-06  0.141E-03    3.63      13.9  T
   5    -32.0698239 -0.189762E-07  0.606E-04    3.63      32.4  T
   6    -32.0698239 -0.396361E-08  0.336E-04    3.63      58.4  T
   7    -32.0698239 -0.669772E-09  0.752E-05    3.63     260.6  T
   8    -32.0698239 -0.453539E-10  0.263E-05    3.63     745.8  T
   9    -32.0698239 -0.852651E-11  0.120E-05    3.63    1636.5  T
  10    -32.0698239 -0.625278E-12  0.447E-06    3.63    4383.6  T
  11    -32.0698239 -0.262901E-12  0.163E-06    3.63   12045.6  T
     SCC iter.                  ...        0 min,  0.077 sec
     gradient                   ...        0 min,  0.002 sec
 * total energy  :   -31.5522957 Eh     change       -0.1874710E-03 Eh
   gradient norm :     0.0067276 Eh/α   predicted    -0.1338578E-03 ( -28.60%)
   displ. norm   :     0.2207406 α      lambda       -0.2226268E-03
   maximum displ.:     0.1432523 α      in ANC's #4, #2, #6, ...

........................................................................
.............................. CYCLE   27 ..............................
........................................................................

 iter      E             dE          RMSdq      gap      omega  full diag
   1    -32.0714244 -0.320714E+02  0.640E-02    3.63       0.0  T
   2    -32.0714256 -0.122714E-05  0.370E-02    3.63       1.0  T
   3    -32.0714256 -0.618657E-08  0.500E-03    3.63       3.9  T
   4    -32.0714257 -0.936302E-07  0.168E-03    3.63      11.7  T
   5    -32.0714257 -0.240197E-07  0.788E-04    3.63      24.9  T
   6    -32.0714257 -0.607911E-08  0.326E-04    3.63      60.1  T
   7    -32.0714257 -0.864716E-09  0.142E-04    3.63     137.8  T
   8    -32.0714257 -0.912195E-10  0.336E-05    3.63     583.8  T
   9    -32.0714257 -0.676437E-11  0.161E-05    3.63    1214.4  T
  10    -32.0714257 -0.122213E-11  0.789E-06    3.63    2484.6  T
  11    -32.0714257 -0.532907E-12  0.253E-06    3.63    7737.7  T
     SCC iter.                  ...        0 min,  0.076 sec
     gradient                   ...        0 min,  0.002 sec
 * total energy  :   -31.5524402 Eh     change       -0.1445416E-03 Eh
   gradient norm :     0.0031999 Eh/α   predicted    -0.1167466E-03 ( -19.23%)
   displ. norm   :     0.2680088 α      lambda       -0.1090344E-03
   maximum displ.:     0.1648018 α      in ANC's #4, #2, #6, ...

........................................................................
.............................. CYCLE   28 ..............................
........................................................................

 iter      E             dE          RMSdq      gap      omega  full diag
   1    -32.0701983 -0.320702E+02  0.721E-02    3.63       0.0  T
   2    -32.0701989 -0.566858E-06  0.426E-02    3.63       1.0  T
   3    -32.0701987  0.170582E-06  0.507E-03    3.63       3.9  T
   4    -32.0701990 -0.265461E-06  0.224E-03    3.63       8.8  T
   5    -32.0701990 -0.198345E-07  0.104E-03    3.63      18.9  T
   6    -32.0701990 -0.153712E-07  0.496E-04    3.63      39.5  T
   7    -32.0701990 -0.616900E-09  0.110E-04    3.63     177.7  T
   8    -32.0701990 -0.743086E-10  0.314E-05    3.63     623.8  T
   9    -32.0701990 -0.898837E-11  0.143E-05    3.63    1371.4  T
  10    -32.0701990 -0.483169E-12  0.442E-06    3.63    4433.7  T
  11    -32.0701990 -0.923706E-13  0.202E-06    3.63    9685.5  T
     SCC iter.                  ...        0 min,  0.078 sec
     gradient                   ...        0 min,  0.002 sec
 * total energy  :   -31.5524967 Eh     change       -0.5640777E-04 Eh
   gradient norm :     0.0045751 Eh/α   predicted    -0.5844423E-04 (   3.61%)
   displ. norm   :     0.0841827 α      lambda       -0.8094750E-04
   maximum displ.:     0.0501477 α      in ANC's #2, #4, #9, ...

........................................................................
.............................. CYCLE   29 ..............................
........................................................................

 iter      E             dE          RMSdq      gap      omega  full diag
   1    -32.0731360 -0.320731E+02  0.280E-02    3.63       0.0  T
   2    -32.0731367 -0.659504E-06  0.159E-02    3.63       1.2  T
   3    -32.0731366  0.635057E-07  0.604E-03    3.63       3.2  T
   4    -32.0731367 -0.149652E-06  0.122E-03    3.63      16.1  T
   5    -32.0731367  0.931259E-09  0.857E-04    3.63      22.9  T
   6    -32.0731368 -0.639248E-08  0.364E-04    3.63      53.9  T
   7    -32.0731368 -0.732342E-09  0.115E-04    3.63     170.5  T
   8    -32.0731368 -0.285638E-11  0.263E-05    3.63     745.9  T
   9    -32.0731368 -0.616751E-11  0.125E-05    3.63    1565.9  T
  10    -32.0731368 -0.802913E-12  0.398E-06    3.63    4922.2  T
  11    -32.0731368 -0.106581E-12  0.159E-06    3.63   12304.5  T
     SCC iter.                  ...        0 min,  0.076 sec
     gradient                   ...        0 min,  0.002 sec
 * total energy  :   -31.5525426 Eh     change       -0.4593890E-04 Eh
   gradient norm :     0.0023736 Eh/α   predicted    -0.4076455E-04 ( -11.26%)
   displ. norm   :     0.1022678 α      lambda       -0.2877743E-04
   maximum displ.:     0.0617906 α      in ANC's #4, #2, #6, ...

........................................................................
.............................. CYCLE   30 ..............................
........................................................................

 iter      E             dE          RMSdq      gap      omega  full diag
   1    -32.0733097 -0.320733E+02  0.268E-02    3.64       0.0  T
   2    -32.0733098 -0.879526E-07  0.157E-02    3.64       1.3  T
   3    -32.0733097  0.750823E-07  0.235E-03    3.64       8.3  T
   4    -32.0733098 -0.853315E-07  0.104E-03    3.64      18.9  T
   5    -32.0733098 -0.164184E-07  0.239E-04    3.64      82.2  T
   6    -32.0733098 -0.260023E-09  0.147E-04    3.64     133.1  T
   7    -32.0733098 -0.914966E-10  0.460E-05    3.64     426.4  T
   8    -32.0733098 -0.851230E-11  0.147E-05    3.64    1329.6  T
   9    -32.0733098 -0.285638E-11  0.624E-06    3.64    3143.2  T
  10    -32.0733098 -0.326850E-12  0.192E-06    3.64   10195.3  T
     SCC iter.                  ...        0 min,  0.075 sec
     gradient                   ...        0 min,  0.002 sec
 * total energy  :   -31.5525633 Eh     change       -0.2072526E-04 Eh
   gradient norm :     0.0020415 Eh/α   predicted    -0.1454173E-04 ( -29.84%)
   displ. norm   :     0.0967978 α      lambda       -0.2920971E-04
   maximum displ.:     0.0529982 α      in ANC's #2, #4, #6, ...

........................................................................
.............................. CYCLE   31 ..............................
........................................................................

 iter      E             dE          RMSdq      gap      omega  full diag
   1    -32.0736632 -0.320737E+02  0.254E-02    3.64       0.0  T
   2    -32.0736632 -0.785556E-07  0.151E-02    3.64       1.3  T
   3    -32.0736632  0.804023E-07  0.273E-03    3.64       7.2  T
   4    -32.0736633 -0.103609E-06  0.888E-04    3.64      22.1  T
   5    -32.0736633  0.346120E-09  0.526E-04    3.64      37.3  T
   6    -32.0736633 -0.271979E-08  0.156E-04    3.64     125.8  T
   7    -32.0736633 -0.106979E-09  0.431E-05    3.64     454.6  T
   8    -32.0736633 -0.196820E-11  0.144E-05    3.64    1359.1  T
   9    -32.0736633 -0.250111E-11  0.526E-06    3.64    3725.9  T
  10    -32.0736633 -0.163425E-12  0.226E-06    3.64    8675.0  T
     SCC iter.                  ...        0 min,  0.079 sec
     gradient                   ...        0 min,  0.002 sec
 * total energy  :   -31.5525819 Eh     change       -0.1860036E-04 Eh
   gradient norm :     0.0016520 Eh/α   predicted    -0.1474193E-04 ( -20.74%)
   displ. norm   :     0.0900926 α      lambda       -0.1535505E-04
   maximum displ.:     0.0438791 α      in ANC's #8, #4, #2, ...

........................................................................
.............................. CYCLE   32 ..............................
........................................................................

 iter      E             dE          RMSdq      gap      omega  full diag
   1    -32.0735984 -0.320736E+02  0.221E-02    3.64       0.0  T
   2    -32.0735985 -0.703781E-07  0.131E-02    3.64       1.5  T
   3    -32.0735984  0.390337E-07  0.209E-03    3.64       9.4  T
   4    -32.0735985 -0.505287E-07  0.583E-04    3.64      33.6  T
   5    -32.0735985 -0.449566E-08  0.279E-04    3.64      70.4  T
   6    -32.0735985 -0.979902E-09  0.120E-04    3.64     163.1  T
   7    -32.0735985 -0.697256E-10  0.397E-05    3.64     493.4  T
   8    -32.0735985 -0.135500E-10  0.154E-05    3.64    1276.6  T
   9    -32.0735985 -0.795808E-12  0.760E-06    3.64    2579.7  T
  10    -32.0735985 -0.277112E-12  0.185E-06    3.64   10618.5  T
     SCC iter.                  ...        0 min,  0.075 sec
     gradient                   ...        0 min,  0.002 sec
 * total energy  :   -31.5525957 Eh     change       -0.1373878E-04 Eh
   gradient norm :     0.0023575 Eh/α   predicted    -0.7708755E-05 ( -43.89%)
   displ. norm   :     0.0415500 α      lambda       -0.1664532E-04
   maximum displ.:     0.0262713 α      in ANC's #8, #9, #11, ...

........................................................................
.............................. CYCLE   33 ..............................
........................................................................

 iter      E             dE          RMSdq      gap      omega  full diag
   1    -32.0737584 -0.320738E+02  0.132E-02    3.64       0.0  T
   2    -32.0737585 -0.967025E-07  0.752E-03    3.64       2.6  T
   3    -32.0737585 -0.228990E-08  0.133E-03    3.64      14.8  T
   4    -32.0737585 -0.553393E-08  0.447E-04    3.64      43.8  T
   5    -32.0737585 -0.111591E-08  0.214E-04    3.64      91.6  T
   6    -32.0737585 -0.248463E-09  0.913E-05    3.64     214.9  T
   7    -32.0737585 -0.280593E-10  0.379E-05    3.64     517.8  T
   8    -32.0737585 -0.119442E-10  0.950E-06    3.64    2064.6  T
   9    -32.0737585 -0.930811E-12  0.503E-06    3.64    3901.7  T
     SCC iter.                  ...        0 min,  0.074 sec
     gradient                   ...        0 min,  0.002 sec
 * total energy  :   -31.5526057 Eh     change       -0.1008107E-04 Eh
   gradient norm :     0.0014466 Eh/α   predicted    -0.8337374E-05 ( -17.30%)
   displ. norm   :     0.0840080 α      lambda       -0.1338627E-04
   maximum displ.:     0.0451288 α      in ANC's #4, #8, #9, ...

........................................................................
.............................. CYCLE   34 ..............................
........................................................................

 iter      E             dE          RMSdq      gap      omega  full diag
   1    -32.0727633 -0.320728E+02  0.194E-02    3.64       0.0  T
   2    -32.0727635 -0.129504E-06  0.115E-02    3.64       1.7  T
   3    -32.0727635  0.470171E-08  0.167E-03    3.63      11.7  T
   4    -32.0727635 -0.197204E-07  0.667E-04    3.63      29.4  T
   5    -32.0727635 -0.238113E-08  0.319E-04    3.63      61.5  T
   6    -32.0727635 -0.750653E-09  0.986E-05    3.63     198.8  T
   7    -32.0727635 -0.607585E-10  0.437E-05    3.63     448.3  T
   8    -32.0727635 -0.128466E-10  0.832E-06    3.63    2357.1  T
   9    -32.0727635 -0.476064E-12  0.430E-06    3.63    4560.2  T
     SCC iter.                  ...        0 min,  0.075 sec
     gradient                   ...        0 min,  0.002 sec
 * total energy  :   -31.5526127 Eh     change       -0.7004383E-05 Eh
   gradient norm :     0.0014276 Eh/α   predicted    -0.6730749E-05 (  -3.91%)
   displ. norm   :     0.0371600 α      lambda       -0.5968956E-05
   maximum displ.:     0.0220154 α      in ANC's #2, #6, #10, ...

........................................................................
.............................. CYCLE   35 ..............................
........................................................................

 iter      E             dE          RMSdq      gap      omega  full diag
   1    -32.0733376 -0.320733E+02  0.138E-02    3.64       0.0  T
   2    -32.0733376 -0.656494E-07  0.788E-03    3.64       2.5  T
   3    -32.0733376  0.108088E-08  0.128E-03    3.64      15.4  T
   4    -32.0733376 -0.717392E-08  0.520E-04    3.64      37.7  T
   5    -32.0733376 -0.884327E-09  0.232E-04    3.64      84.6  T
   6    -32.0733376 -0.737508E-09  0.112E-04    3.64     175.1  T
   7    -32.0733376 -0.637215E-10  0.414E-05    3.64     473.8  T
   8    -32.0733376 -0.396483E-11  0.811E-06    3.64    2417.2  T
   9    -32.0733376 -0.540012E-12  0.327E-06    3.64    5988.5  T
     SCC iter.                  ...        0 min,  0.074 sec
     gradient                   ...        0 min,  0.002 sec
 * total energy  :   -31.5526177 Eh     change       -0.4956669E-05 Eh
   gradient norm :     0.0010305 Eh/α   predicted    -0.2989470E-05 ( -39.69%)
   displ. norm   :     0.0230043 α      lambda       -0.3450842E-05
   maximum displ.:     0.0184234 α      in ANC's #4, #6, #7, ...

........................................................................
.............................. CYCLE   36 ..............................
........................................................................

 iter      E             dE          RMSdq      gap      omega  full diag
   1    -32.0733733 -0.320734E+02  0.865E-03    3.64       0.0  T
   2    -32.0733734 -0.161913E-07  0.505E-03    3.64       3.9  T
   3    -32.0733734  0.293775E-08  0.872E-04    3.64      22.5  T
   4    -32.0733734 -0.536914E-08  0.211E-04    3.64      93.2  T
   5    -32.0733734 -0.849383E-10  0.101E-04    3.64     193.6  T
   6    -32.0733734 -0.651994E-10  0.546E-05    3.64     359.3  T
   7    -32.0733734 -0.373745E-11  0.136E-05    3.64    1442.3  T
   8    -32.0733734 -0.321876E-11  0.384E-06    3.64    5108.2  T
   9    -32.0733734 -0.106581E-12  0.161E-06    3.64   12170.0  T
     SCC iter.                  ...        0 min,  0.075 sec
     gradient                   ...        0 min,  0.002 sec
 * total energy  :   -31.5526214 Eh     change       -0.3711006E-05 Eh
   gradient norm :     0.0006875 Eh/α   predicted    -0.1730801E-05 ( -53.36%)
   displ. norm   :     0.0506948 α      lambda       -0.4588936E-05
   maximum displ.:     0.0419406 α      in ANC's #4, #6, #10, ...

........................................................................
.............................. CYCLE   37 ..............................
........................................................................

 iter      E             dE          RMSdq      gap      omega  full diag
   1    -32.0732244 -0.320732E+02  0.151E-02    3.64       0.0  T
   2    -32.0732244 -0.259783E-07  0.888E-03    3.64       2.2  T
   3    -32.0732244 -0.109308E-08  0.847E-04    3.64      23.1  T
   4    -32.0732244 -0.317892E-08  0.297E-04    3.64      66.0  T
   5    -32.0732244 -0.277595E-09  0.148E-04    3.64     132.8  T
   6    -32.0732244 -0.295536E-09  0.587E-05    3.64     334.1  T
   7    -32.0732244 -0.205631E-10  0.224E-05    3.64     874.5  T
   8    -32.0732244 -0.514433E-11  0.614E-06    3.64    3194.8  T
   9    -32.0732244 -0.135003E-12  0.237E-06    3.64    8259.8  T
     SCC iter.                  ...        0 min,  0.074 sec
     gradient                   ...        0 min,  0.002 sec
 * total energy  :   -31.5526261 Eh     change       -0.4704834E-05 Eh
   gradient norm :     0.0008876 Eh/α   predicted    -0.2298573E-05 ( -51.14%)
   displ. norm   :     0.0622096 α      lambda       -0.3951403E-05
   maximum displ.:     0.0500229 α      in ANC's #4, #6, #11, ...

........................................................................
.............................. CYCLE   38 ..............................
........................................................................

 iter      E             dE          RMSdq      gap      omega  full diag
   1    -32.0730436 -0.320730E+02  0.164E-02    3.64       0.0  T
   2    -32.0730436 -0.404743E-07  0.960E-03    3.64       2.0  T
   3    -32.0730436  0.244155E-08  0.974E-04    3.64      20.1  T
   4    -32.0730436 -0.544539E-08  0.417E-04    3.64      47.1  T
   5    -32.0730436 -0.298635E-08  0.165E-04    3.64     118.9  T
   6    -32.0730436 -0.414452E-09  0.746E-05    3.64     262.7  T
   7    -32.0730436 -0.119940E-10  0.272E-05    3.64     720.5  T
   8    -32.0730436 -0.180478E-11  0.535E-06    3.64    3663.4  T
   9    -32.0730436 -0.241585E-12  0.264E-06    3.64    7434.1  T
     SCC iter.                  ...        0 min,  0.076 sec
     gradient                   ...        0 min,  0.002 sec
 * total energy  :   -31.5526296 Eh     change       -0.3468030E-05 Eh
   gradient norm :     0.0008091 Eh/α   predicted    -0.1980190E-05 ( -42.90%)
   displ. norm   :     0.0298124 α      lambda       -0.2022955E-05
   maximum displ.:     0.0245573 α      in ANC's #4, #10, #3, ...

........................................................................
.............................. CYCLE   39 ..............................
........................................................................

 iter      E             dE          RMSdq      gap      omega  full diag
   1    -32.0731444 -0.320731E+02  0.820E-03    3.64       0.0  T
   2    -32.0731444 -0.188117E-07  0.464E-03    3.63       4.2  T
   3    -32.0731444 -0.102202E-08  0.741E-04    3.63      26.5  T
   4    -32.0731444 -0.590312E-09  0.317E-04    3.63      61.9  T
   5    -32.0731444 -0.118236E-08  0.100E-04    3.63     196.1  T
   6    -32.0731444 -0.157172E-09  0.368E-05    3.63     532.8  T
   7    -32.0731444 -0.199663E-11  0.140E-05    3.63    1401.8  T
   8    -32.0731444 -0.182609E-11  0.380E-06    3.63    5157.3  T
   9    -32.0731444 -0.390799E-12  0.144E-06    3.63   13618.8  T
     SCC iter.                  ...        0 min,  0.074 sec
     gradient                   ...        0 min,  0.002 sec
 * total energy  :   -31.5526314 Eh     change       -0.1778980E-05 Eh
   gradient norm :     0.0003895 Eh/α   predicted    -0.1012847E-05 ( -43.07%)
   displ. norm   :     0.0102025 α      lambda       -0.7427413E-06
   maximum displ.:     0.0052147 α      in ANC's #1, #4, #10, ...

........................................................................
.............................. CYCLE   40 ..............................
........................................................................

 iter      E             dE          RMSdq      gap      omega  full diag
   1    -32.0732393 -0.320732E+02  0.424E-03    3.64       0.0  T
   2    -32.0732393 -0.101704E-07  0.233E-03    3.64       8.4  T
   3    -32.0732393  0.951061E-10  0.619E-04    3.64      31.7  T
   4    -32.0732393 -0.105813E-08  0.167E-04    3.64     117.5  T
   5    -32.0732393 -0.115683E-09  0.682E-05    3.64     287.5  T
   6    -32.0732393 -0.497309E-10  0.323E-05    3.64     607.9  T
   7    -32.0732393 -0.312639E-11  0.119E-05    3.64    1645.3  T
   8    -32.0732393 -0.582645E-12  0.329E-06    3.64    5966.4  T
   9    -32.0732393 -0.142109E-12  0.111E-06    3.64   17629.3  T
     SCC iter.                  ...        0 min,  0.074 sec
     gradient                   ...        0 min,  0.002 sec
 * total energy  :   -31.5526320 Eh     change       -0.6513159E-06 Eh
   gradient norm :     0.0001716 Eh/α   predicted    -0.3744172E-06 ( -42.51%)
   displ. norm   :     0.0084211 α      lambda       -0.2120337E-06
   maximum displ.:     0.0057007 α      in ANC's #1, #4, #2, ...

........................................................................
.............................. CYCLE   41 ..............................
........................................................................

 iter      E             dE          RMSdq      gap      omega  full diag
   1    -32.0732535 -0.320733E+02  0.246E-03    3.64       0.0  T
   2    -32.0732535 -0.107181E-08  0.144E-03    3.64      13.6  T
   3    -32.0732535  0.835811E-10  0.170E-04    3.64     115.5  T
   4    -32.0732535 -0.177707E-09  0.811E-05    3.64     241.7  T
   5    -32.0732535 -0.790976E-10  0.256E-05    3.64     765.7  T
   6    -32.0732535 -0.119371E-11  0.119E-05    3.64    1651.8  T
   7    -32.0732535 -0.895284E-12  0.402E-06    3.64    4872.5  T
   8    -32.0732535 -0.113687E-12  0.105E-06    3.64   18702.0  T
     SCC iter.                  ...        0 min,  0.074 sec
     gradient                   ...        0 min,  0.002 sec
 * total energy  :   -31.5526323 Eh     change       -0.2487761E-06 Eh
   gradient norm :     0.0001786 Eh/α   predicted    -0.1099655E-06 ( -55.80%)
   displ. norm   :     0.0099618 α      lambda       -0.2237038E-06
   maximum displ.:     0.0072763 α      in ANC's #1, #2, #4, ...

........................................................................
.............................. CYCLE   42 ..............................
........................................................................

 iter      E             dE          RMSdq      gap      omega  full diag
   1    -32.0732718 -0.320733E+02  0.304E-03    3.64       0.0  T
   2    -32.0732718 -0.886402E-09  0.177E-03    3.64      11.1  T
   3    -32.0732718  0.529525E-09  0.266E-04    3.64      73.7  T
   4    -32.0732718 -0.786265E-09  0.590E-05    3.64     332.6  T
   5    -32.0732718 -0.586198E-11  0.329E-05    3.64     596.8  T
   6    -32.0732718 -0.183817E-10  0.115E-05    3.64    1706.4  T
   7    -32.0732718 -0.163425E-12  0.389E-06    3.64    5046.4  T
   8    -32.0732718 -0.142109E-13  0.193E-06    3.64   10146.8  T
     SCC iter.                  ...        0 min,  0.074 sec
     gradient                   ...        0 min,  0.002 sec
 * total energy  :   -31.5526325 Eh     change       -0.2808644E-06 Eh
   gradient norm :     0.0001334 Eh/α   predicted    -0.1152924E-06 ( -58.95%)
   displ. norm   :     0.0116591 α      lambda       -0.2196257E-06
   maximum displ.:     0.0086076 α      in ANC's #1, #2, #4, ...
 * RMSD in coord.:     0.3844771 α      energy gain  -0.1699601E-02 Eh

generating ANC from model Hessian ...
Using Lindh-Hessian (1995)
 Shifting diagonal of input Hessian by   9.328671082672581E-003
 Lowest  eigenvalues of input Hessian
    0.000000    0.000000    0.000000    0.000000    0.000000    0.000000
    0.010000    0.010699    0.011124    0.011409    0.011836    0.012881
    0.015903    0.018090    0.018533    0.019686    0.021438    0.024733
 Highest eigenvalues
    1.364562    1.551202    1.577485    1.880591    1.987470    2.005670
 

........................................................................
.............................. CYCLE   43 ..............................
........................................................................

 iter      E             dE          RMSdq      gap      omega  full diag
   1    -32.0732643 -0.320733E+02  0.356E-03    3.64       0.0  T
   2    -32.0732643 -0.596124E-09  0.209E-03    3.64       9.4  T
   3    -32.0732643  0.236334E-09  0.143E-04    3.63     137.5  T
   4    -32.0732643 -0.454854E-09  0.614E-05    3.64     319.5  T
   5    -32.0732643 -0.217142E-10  0.212E-05    3.64     925.4  T
   6    -32.0732643 -0.289191E-11  0.738E-06    3.64    2655.9  T
   7    -32.0732643 -0.355271E-13  0.346E-06    3.64    5668.1  T
     SCC iter.                  ...        0 min,  0.074 sec
     gradient                   ...        0 min,  0.002 sec
 * total energy  :   -31.5526328 Eh     change       -0.2709285E-06 Eh
   gradient norm :     0.0000831 Eh/α   predicted     0.0000000E+00 (-100.00%)
   displ. norm   :     0.0001246 α      lambda        0.0000000E+00
   maximum displ.:     0.0000421 α      in ANC's #61, #64, #1, ...

........................................................................
.............................. CYCLE   44 ..............................
........................................................................

 iter      E             dE          RMSdq      gap      omega  full diag
   1    -32.0732561 -0.320733E+02  0.175E-04    3.64       0.0  T
   2    -32.0732561 -0.749765E-10  0.903E-05    3.64     217.2  T
   3    -32.0732561 -0.278533E-11  0.414E-05    3.64     473.8  T
   4    -32.0732561 -0.331823E-11  0.187E-05    3.64    1048.9  T
   5    -32.0732561 -0.141398E-11  0.499E-06    3.64    3933.8  T
   6    -32.0732561 -0.419220E-12  0.186E-06    3.64   10531.8  T
     SCC iter.                  ...        0 min,  0.073 sec
     gradient                   ...        0 min,  0.002 sec
 * total energy  :   -31.5526328 Eh     change       -0.6746070E-08 Eh
   gradient norm :     0.0000472 Eh/α   predicted    -0.4080594E-08 ( -39.51%)
   displ. norm   :     0.0001246 α      lambda        0.0000000E+00
   maximum displ.:     0.0000421 α      in ANC's #61, #64, #1, ...

   *** GEOMETRY OPTIMIZATION CONVERGED AFTER 44 ITERATIONS ***

------------------------------------------------------------------------
 total energy gain   :        -0.0206883 Eh      -12.9821 kcal/mol
 total RMSD          :         1.2170231 a0        0.6440 Å
 total power (kW/mol):        -1.2344799 (step)  -15.6261 (real)
------------------------------------------------------------------------

 ANCopt (total)                0 d,  0 h,  0 min,  3.476 sec
 optimizer setup                ...        0 min,  0.000 sec (  0.002%)
 model hessian                  ...        0 min,  0.021 sec (  0.607%)
 ANC generation                 ...        0 min,  0.001 sec (  0.030%)
 coordinate transformation      ...        0 min,  0.000 sec (  0.012%)
 single point calculation       ...        0 min,  3.446 sec ( 99.122%)
 optimization log               ...        0 min,  0.003 sec (  0.081%)
 hessian update                 ...        0 min,  0.001 sec (  0.019%)
 rational function              ...        0 min,  0.003 sec (  0.096%)

================
 final structure:
================
26
 xtb: 6.7.0 (08769fc)
P            1.65635771457523       -0.05142356999475       -3.10739295054353
C            0.27897444130016        1.11718978421968       -3.58329495796227
H            0.19302866943805        1.82871218968371       -2.75658553557104
H            0.66822994703358        1.68226877861508       -4.43674439200535
C           -1.08662392454339        0.54274300512561       -3.94667084140932
H           -1.44819816258287       -0.15347939324024       -3.19368206552657
H           -1.04816959199518        0.02300770303584       -4.90068798829675
H           -1.80896831327807        1.35337291654137       -4.03665429907183
C            1.10755287489644       -0.70860302549633       -1.48225361381874
C            1.96972780342628       -1.62451595848407       -0.88099918834543
C           -0.02395059867183       -0.30493081000893       -0.78347994172768
C            1.67698698523203       -2.17329509776593        0.35241134247722
C           -0.31336859089751       -0.84944146670945        0.45603157123133
C            0.52548654877929       -1.79315543144586        1.02201812496217
H            2.88674528178692       -1.89264334587623       -1.38728693705710
H           -0.68583041815171        0.44362163786204       -1.19026774613443
H            2.35156224149374       -2.89014971979172        0.79853775069701
H           -1.20108003056075       -0.53056598025060        0.98410748405190
H            0.29201643933790       -2.21828698433496        1.98722890721009
C            1.19239368746645       -1.50423227476509       -4.19357033177093
H            0.20372251271168       -1.87650433235474       -3.91575199211627
H            1.14342108543831       -1.09962566626595       -5.20904933843457
C            2.21011875846436       -2.63503936441034       -4.15173256589151
H            2.19440868348740       -3.13574446442023       -3.18666518882809
H            3.21408444338455       -2.25432175923816       -4.33013906031465
H            1.98116251243233       -3.37366437022668       -4.91883624581014
 
 Bond Distances (Angstroems)
 ---------------------------
P1-C2=1.8680         P1-C9=1.8369         P1-C20=1.8724        C2-P1=1.8680         C2-H3=1.0941         C2-H4=1.0951         
C2-C5=1.5254         H3-C2=1.0941         H4-C2=1.0951         C5-C2=1.5254         C5-H6=1.0874         C5-H7=1.0871         
C5-H8=1.0895         H6-C5=1.0874         H7-C5=1.0871         H8-C5=1.0895         C9-P1=1.8369         C9-C10=1.3942        
C9-C11=1.3898        C10-C9=1.3942        C10-C12=1.3814       C10-H15=1.0813       C11-C9=1.3898        C11-C13=1.3844       
C11-H16=1.0788       C12-C10=1.3814       C12-C14=1.3852       C12-H17=1.0807       C13-C11=1.3844       C13-C14=1.3837       
C13-H18=1.0810       C14-C12=1.3852       C14-C13=1.3837       C14-H19=1.0802       H15-C10=1.0813       H16-C11=1.0788       
H17-C12=1.0807       H18-C13=1.0810       H19-C14=1.0802       C20-P1=1.8724        C20-H21=1.0924       C20-H22=1.0942       
C20-C23=1.5219       H21-C20=1.0924       H22-C20=1.0942       C23-C20=1.5219       C23-H24=1.0873       C23-H25=1.0884       
[...]
         :::::::::::::::::::::::::::::::::::::::::::::::::::::

           ------------------------------------------------- 
          |                Numerical Hessian                |
           ------------------------------------------------- 
step length          :   0.00500
SCC accuracy         :   0.30000
Hessian scale factor :   1.00000
frozen atoms in %    :   0.00000    0
RMS gradient         :   0.00005
estimated CPU  time      1.10 min
estimated wall time      0.14 min

writing file <hessian>.

 projected vibrational frequencies (cm⁻¹)
eigval :       -0.00    -0.00    -0.00     0.00     0.00     0.00
eigval :       -4.30    78.76   103.71   129.99   165.19   192.75
eigval :      210.88   232.03   253.19   259.48   287.23   366.07
eigval :      377.51   409.34   465.16   585.65   644.88   660.43
eigval :      678.36   688.29   738.17   752.30   776.35   877.80
eigval :      901.24   929.03   933.66   968.11   992.15  1000.71
eigval :     1018.71  1021.43  1060.46  1081.51  1085.17  1114.81
eigval :     1121.66  1181.55  1203.54  1228.87  1232.44  1251.71
eigval :     1275.30  1281.22  1316.02  1408.24  1410.81  1420.90
eigval :     1442.90  1454.99  1465.01  1497.68  1503.05  1507.55
eigval :     1513.42  1577.26  1588.93  2928.89  2938.48  2949.11
eigval :     2951.82  3009.08  3011.22  3025.48  3034.27  3038.65
eigval :     3043.08  3062.99  3067.15  3074.53  3086.68  3099.59
           -------------------------------------------------
          |                Property Printout                |
           -------------------------------------------------

    * Orbital Energies and Occupations

         #    Occupation            Energy/Eh            Energy/eV
      -------------------------------------------------------------
         1        2.0000           -0.6579723             -17.9043
       ...           ...                  ...                  ...
        18        2.0000           -0.4746021             -12.9146
        19        2.0000           -0.4732581             -12.8780
        20        2.0000           -0.4667468             -12.7008
        21        2.0000           -0.4607734             -12.5383
        22        2.0000           -0.4562429             -12.4150
        23        2.0000           -0.4433352             -12.0638
        24        2.0000           -0.4419699             -12.0266
        25        2.0000           -0.4236415             -11.5279
        26        2.0000           -0.4147344             -11.2855
        27        2.0000           -0.4065682             -11.0633
        28        2.0000           -0.4017553             -10.9323
        29        2.0000           -0.3980498             -10.8315
        30        2.0000           -0.3631244              -9.8811 (HOMO)
        31                         -0.2295378              -6.2460 (LUMO)
        32                         -0.2209141              -6.0114
        33                         -0.1590568              -4.3282
        34                         -0.1470521              -4.0015
        35                         -0.0921129              -2.5065
        36                         -0.0087507              -0.2381
        37                          0.0675395               1.8378
        38                          0.0825970               2.2476
        39                          0.1174243               3.1953
        40                          0.1228574               3.3431
        41                          0.1310333               3.5656
       ...                                ...                  ...
        64                          0.7741239              21.0650
      -------------------------------------------------------------
                  HL-Gap            0.1335866 Eh            3.6351 eV
             Fermi-level           -0.2963311 Eh           -8.0636 eV

     #   Z          covCN         q      C6AA      α(0)
     1  15 P        2.996    -0.115   165.487    23.110
     2   6 C        3.747    -0.047    21.489     6.612
     3   1 H        0.926     0.043     2.414     2.430
     4   1 H        0.926     0.039     2.465     2.455
     5   6 C        3.771    -0.096    22.360     6.738
     6   1 H        0.925     0.041     2.441     2.443
     7   1 H        0.925     0.036     2.500     2.473
     8   1 H        0.925     0.033     2.549     2.497
     9   6 C        2.915     0.010    27.792     8.645
    10   6 C        3.030    -0.031    28.746     8.794
    11   6 C        2.956    -0.034    28.838     8.808
    12   6 C        2.918    -0.030    28.759     8.794
    13   6 C        2.920    -0.031    28.784     8.798
    14   6 C        2.920    -0.031    28.766     8.795
    15   1 H        0.925     0.038     2.482     2.464
    16   1 H        0.926     0.036     2.497     2.471
    17   1 H        0.926     0.028     2.617     2.530
    18   1 H        0.926     0.027     2.633     2.538
    19   1 H        0.926     0.028     2.622     2.532
    20   6 C        3.748    -0.044    21.430     6.603
    21   1 H        0.925     0.046     2.374     2.410
    22   1 H        0.926     0.043     2.412     2.429
    23   6 C        3.799    -0.099    22.384     6.736
    24   1 H        0.925     0.039     2.459     2.452
    25   1 H        0.925     0.041     2.430     2.438
    26   1 H        0.925     0.033     2.550     2.497

 Mol. C6AA /au·bohr⁶  :       7597.770416
 Mol. C8AA /au·bohr⁸  :     202593.397102
 Mol. α(0) /au        :        139.491423


Wiberg/Mayer (AO) data.
largest (>0.10) Wiberg bond orders for each atom

 ---------------------------------------------------------------------------
     #   Z sym  total        # sym  WBO       # sym  WBO       # sym  WBO
 ---------------------------------------------------------------------------
     1  15 P    3.370 --     2 C    1.029     9 C    1.019    20 C    1.012
     2   6 C    3.991 --     1 P    1.029     5 C    1.009     4 H    0.958
                             3 H    0.953
     3   1 H    0.998 --     2 C    0.953
     4   1 H    0.998 --     2 C    0.958
     5   6 C    3.996 --     2 C    1.009     7 H    0.986     8 H    0.983
                             6 H    0.981
     6   1 H    0.998 --     5 C    0.981
     7   1 H    0.999 --     5 C    0.986
     8   1 H    0.999 --     5 C    0.983
     9   6 C    3.982 --    11 C    1.402    10 C    1.391     1 P    1.019
                            14 C    0.106
    10   6 C    3.992 --    12 C    1.454     9 C    1.391    15 H    0.961
                            13 C    0.109
    11   6 C    3.992 --    13 C    1.441     9 C    1.402    16 H    0.962
                            12 C    0.108
    12   6 C    3.991 --    10 C    1.454    14 C    1.430    17 H    0.970
                            11 C    0.108
    13   6 C    3.992 --    11 C    1.441    14 C    1.440    18 H    0.970
                            10 C    0.109
    14   6 C    3.991 --    13 C    1.440    12 C    1.430    19 H    0.971
                             9 C    0.106
    15   1 H    0.999 --    10 C    0.961
    16   1 H    0.999 --    11 C    0.962
    17   1 H    0.999 --    12 C    0.970
    18   1 H    0.999 --    13 C    0.970
    19   1 H    0.999 --    14 C    0.971
    20   6 C    3.996 --    23 C    1.018     1 P    1.012    22 H    0.955
                            21 H    0.954
    21   1 H    0.998 --    20 C    0.954
    22   1 H    0.997 --    20 C    0.955
    23   6 C    3.996 --    20 C    1.018    25 H    0.985    26 H    0.984
                            24 H    0.983
    24   1 H    0.998 --    23 C    0.983
    25   1 H    0.998 --    23 C    0.985
    26   1 H    0.998 --    23 C    0.984
 ---------------------------------------------------------------------------

Topologies differ in total number of bonds
Writing topology from bond orders to xtbtopo.mol

molecular dipole:
                 x           y           z       tot (Debye)
 q only:       -0.251      -0.111      -0.196
   full:       -0.603      -0.232      -0.149       1.685
molecular quadrupole (traceless):
                xx          xy          yy          xz          yz          zz
 q only:       -2.236      -1.876      -0.104       1.580       1.065       2.341
  q+dip:       -4.451      -4.399      -0.173       3.239       0.013       4.624
   full:       -5.110      -3.481       0.919       4.341       1.344       4.191

           -------------------------------------------------
          |                Geometry Summary                 |
           -------------------------------------------------

      molecular mass/u    :      166.2002322
   center of mass at/Å    :        0.9075639      -0.8129117      -2.0622034
  moments of inertia/u·Å² :        0.3679634E+03   0.6967772E+03   0.9279414E+03
rotational constants/cm⁻¹ :        0.4581334E-01   0.2419372E-01   0.1816670E-01

 * 23 selected distances

     #   Z          #   Z                                           value/Å
     2   6 C        3   1 H                                       1.0941204
     2   6 C        4   1 H                                       1.0950846
     2   6 C        5   6 C                                       1.5254148 (max)
     5   6 C        6   1 H                                       1.0874069
     5   6 C        7   1 H                                       1.0870844
     5   6 C        8   1 H                                       1.0894951
     9   6 C       10   6 C                                       1.3941841
     9   6 C       11   6 C                                       1.3897972
    10   6 C       12   6 C                                       1.3813608
    11   6 C       13   6 C                                       1.3844290
    12   6 C       14   6 C                                       1.3852195
    13   6 C       14   6 C                                       1.3836962
    10   6 C       15   1 H                                       1.0812682
    11   6 C       16   1 H                                       1.0788384 (min)
    12   6 C       17   1 H                                       1.0807226
    13   6 C       18   1 H                                       1.0810077
    14   6 C       19   1 H                                       1.0802209
    20   6 C       21   1 H                                       1.0923554
    20   6 C       22   1 H                                       1.0942133
    20   6 C       23   6 C                                       1.5219198
    23   6 C       24   1 H                                       1.0873397
    23   6 C       25   1 H                                       1.0884494
    23   6 C       26   1 H                                       1.0892365

 * 2 distinct bonds (by element types)

   Z      Z             #   av. dist./Å        max./Å        min./Å
   1 H    6 C          15     1.0871229     1.0950846     1.0788384
   6 C    6 C           8     1.4207527     1.5254148     1.3813608

           -------------------------------------------------
          |               Frequency Printout                |
           -------------------------------------------------
 projected vibrational frequencies (cm⁻¹)
eigval :       -0.00    -0.00    -0.00     0.00     0.00     0.00
eigval :       -4.30    78.76   103.71   129.99   165.19   192.75
eigval :      210.88   232.03   253.19   259.48   287.23   366.07
eigval :      377.51   409.34   465.16   585.65   644.88   660.43
eigval :      678.36   688.29   738.17   752.30   776.35   877.80
eigval :      901.24   929.03   933.66   968.11   992.15  1000.71
eigval :     1018.71  1021.43  1060.46  1081.51  1085.17  1114.81
eigval :     1121.66  1181.55  1203.54  1228.87  1232.44  1251.71
eigval :     1275.30  1281.22  1316.02  1408.24  1410.81  1420.90
eigval :     1442.90  1454.99  1465.01  1497.68  1503.05  1507.55
eigval :     1513.42  1577.26  1588.93  2928.89  2938.48  2949.11
eigval :     2951.82  3009.08  3011.22  3025.48  3034.27  3038.65
eigval :     3043.08  3062.99  3067.15  3074.53  3086.68  3099.59
 reduced masses (amu)
   1: 14.26   2: 15.79   3: 10.76   4: 14.78   5: 10.72   6: 11.56   7:  9.27   8: 10.56
   9:  7.60  10:  9.42  11: 10.32  12:  7.61  13:  7.20  14:  4.37  15:  8.73  16:  7.32
  17: 10.59  18: 12.42  19: 14.90  20: 16.19  21: 11.61  22: 11.17  23: 14.85  24: 10.74
  25: 13.87  26: 14.23  27:  2.87  28:  5.88  29:  5.00  30:  3.25  31:  3.59  32:  3.94
  33:  3.00  34: 10.92  35:  2.81  36:  3.13  37:  3.78  38:  3.97  39:  9.69  40:  9.48
  41:  8.20  42:  8.46  43:  4.39  44:  1.32  45:  1.89  46:  3.20  47:  3.48  48:  4.07
  49:  3.70  50:  3.82  51: 11.90  52:  2.96  53:  2.90  54:  8.48  55:  2.09  56:  7.05
  57:  3.12  58:  1.55  59:  1.55  60:  1.55  61:  1.55  62: 11.42  63: 11.44  64:  1.95
  65:  1.84  66:  1.59  67:  1.56  68:  1.81  69:  1.85  70:  1.72  71:  1.88  72:  1.58
  73:  1.45  74:  1.77  75:  1.78  76:  1.85  77:  1.90  78:  1.85
 IR intensities (km·mol⁻¹)
   1:  0.05   2:  0.06   3:  0.16   4:  0.05   5:  0.14   6:  0.02   7:  0.13   8:  0.15
   9:  0.51  10:  0.03  11:  0.24  12:  0.21  13:  0.00  14:  0.14  15:  0.19  16:  0.31
  17:  0.31  18:  0.80  19:  0.95  20:  0.60  21:  3.73  22:  0.11  23: 19.12  24:  1.95
  25: 16.12  26:  9.20  27: 27.77  28: 20.41  29: 20.61  30:  0.15  31:  0.22  32:  0.05
  33:  0.05  34:  1.56  35:  3.65  36:  0.97  37:  2.04  38:  2.59  39:  8.98  40:  5.34
  41:  0.76  42:  1.95  43:  0.08  44:  0.01  45:  0.86  46:  0.70  47:  2.06  48: 15.85
  49:  3.44  50:  1.97  51:  0.26  52:  3.00  53:  1.05  54:  1.10  55:  0.19  56:  0.54
  57:  2.23  58:  2.66  59:  2.23  60:  2.17  61:  0.94  62:  0.14  63:  4.14  64: 14.28
  65: 35.75  66:  9.96  67: 23.69  68: 43.33  69: 49.06  70: 23.84  71: 26.61  72: 22.67
  73: 22.27  74:  9.97  75:  8.53  76: 57.38  77: 74.76  78: 20.67
 Raman intensities (Ä⁴*amu⁻¹)
   1:  0.00   2:  0.00   3:  0.00   4:  0.00   5:  0.00   6:  0.00   7:  0.00   8:  0.00
   9:  0.00  10:  0.00  11:  0.00  12:  0.00  13:  0.00  14:  0.00  15:  0.00  16:  0.00
  17:  0.00  18:  0.00  19:  0.00  20:  0.00  21:  0.00  22:  0.00  23:  0.00  24:  0.00
  25:  0.00  26:  0.00  27:  0.00  28:  0.00  29:  0.00  30:  0.00  31:  0.00  32:  0.00
  33:  0.00  34:  0.00  35:  0.00  36:  0.00  37:  0.00  38:  0.00  39:  0.00  40:  0.00
  41:  0.00  42:  0.00  43:  0.00  44:  0.00  45:  0.00  46:  0.00  47:  0.00  48:  0.00
  49:  0.00  50:  0.00  51:  0.00  52:  0.00  53:  0.00  54:  0.00  55:  0.00  56:  0.00
  57:  0.00  58:  0.00  59:  0.00  60:  0.00  61:  0.00  62:  0.00  63:  0.00  64:  0.00
  65:  0.00  66:  0.00  67:  0.00  68:  0.00  69:  0.00  70:  0.00  71:  0.00  72:  0.00
  73:  0.00  74:  0.00  75:  0.00  76:  0.00  77:  0.00  78:  0.00
 output can be read by thermo (or use thermo option).
 writing <g98.out> molden fake output.
 recommended (thermochemical) frequency scaling factor: 1.0
           -------------------------------------------------
          |             Thermodynamic Functions             |
           -------------------------------------------------

Refinement of some symmetry elements was terminated before convergence was reached.
Some symmetry elements may remain unidentified.
Molecule has no symmetry elements
It seems to be the C1 point group
c1  symmetry found (for desy threshold:  0.10E+00) used in thermo
 inverting freq            1   4.30279909791190     

          ...................................................
          :                      SETUP                      :
          :.................................................:
          :  # frequencies                          72      :
          :  # imaginary freq.                       0      :
          :  linear?                             false      :
          :  only rotor calc.                    false      :
          :  symmetry                               c1      :
          :  rotational number                       1      :
          :  scaling factor                  1.0000000      :
          :  rotor cutoff                   50.0000000 cm⁻¹ :
          :  imag. cutoff                  -20.0000000 cm⁻¹ :
          :.................................................:

    mode    ω/cm⁻¹     T·S(HO)/kcal·mol⁻¹    T·S(FR)/kcal·mol⁻¹   T·S(vib)
   ------------------------------------------------------------------------
       1      4.30    -2.88810 (  0.01%)    -1.78142 ( 99.99%)    -1.78148
       2     78.76    -1.16917 ( 86.03%)    -0.92183 ( 13.97%)    -1.13462
       3    103.71    -1.00875 ( 94.87%)    -0.84035 (  5.13%)    -1.00012
       4    129.99    -0.87842 ( 97.86%)    -0.77346 (  2.14%)    -0.87617
       5    165.19    -0.74224 ( 99.17%)    -0.70247 (  0.83%)    -0.74191
       6    192.75    -0.65631 ( 99.55%)    -0.65678 (  0.45%)    -0.65631
       7    210.88    -0.60704 ( 99.68%)    -0.63014 (  0.32%)    -0.60712
       8    232.03    -0.55552 ( 99.78%)    -0.60184 (  0.22%)    -0.55561
       9    253.19    -0.50931 ( 99.85%)    -0.57598 (  0.15%)    -0.50941
      10    259.48    -0.49650 ( 99.86%)    -0.56872 (  0.14%)    -0.49660
      11    287.23    -0.44430 ( 99.91%)    -0.53861 (  0.09%)    -0.44439
   ------------------------------------------------------------------------

   temp. (K)  partition function   enthalpy   heat capacity  entropy
                                   cal/mol     cal/K/mol   cal/K/mol   J/K/mol
 298.15  VIB  0.455E+05             6044.212     39.474     37.722
         ROT  0.118E+07              888.752      2.981     30.762
         INT  0.536E+11             6932.965     42.454     68.484
         TR   0.207E+28             1481.254      4.968     41.214
         TOT                        8414.2184    47.4225   109.6978   458.9754

       T/K    H(0)-H(T)+PV         H(T)/Eh          T*S/Eh         G(T)/Eh
   ------------------------------------------------------------------------
    298.15    0.134089E-01    0.232680E+00    0.521209E-01    0.180559E+00
   ------------------------------------------------------------------------

         :::::::::::::::::::::::::::::::::::::::::::::::::::::
         ::                  THERMODYNAMIC                  ::
         :::::::::::::::::::::::::::::::::::::::::::::::::::::
         :: total free energy         -31.372073836749 Eh   ::
         ::.................................................::
         :: total energy              -31.552632821296 Eh   ::
         :: zero point energy           0.219271016003 Eh   ::
         :: G(RRHO) w/o ZPVE           -0.038712031456 Eh   ::
         :: G(RRHO) contrib.            0.180558984547 Eh   ::
         :::::::::::::::::::::::::::::::::::::::::::::::::::::

optimized geometry written to: xtbopt.xyz


           -------------------------------------------------
          | TOTAL ENERGY              -31.552632821296 Eh   |
          | TOTAL ENTHALPY            -31.319952894686 Eh   |
          | TOTAL FREE ENERGY         -31.372073836749 Eh   |
          | GRADIENT NORM               0.000047227591 Eh/α |
          | HOMO-LUMO GAP               3.635076713174 eV   |
           -------------------------------------------------

------------------------------------------------------------------------
 * finished run on 2025/07/14 at 11:36:41.400     
------------------------------------------------------------------------
 total:
 * wall-time:     0 d,  0 h,  0 min,  6.859 sec
 *  cpu-time:     0 d,  0 h,  1 min,  9.620 sec
 * ratio c/w:    10.151 speedup
 SCF:
 * wall-time:     0 d,  0 h,  0 min,  0.087 sec
 *  cpu-time:     0 d,  0 h,  0 min,  1.042 sec
 * ratio c/w:    11.956 speedup
 ANC optimizer:
 * wall-time:     0 d,  0 h,  0 min,  3.555 sec
 *  cpu-time:     0 d,  0 h,  0 min, 42.441 sec
 * ratio c/w:    11.940 speedup
 analytical hessian:
 * wall-time:     0 d,  0 h,  0 min,  3.207 sec
 *  cpu-time:     0 d,  0 h,  0 min, 26.039 sec
 * ratio c/w:     8.119 speedup

