      -----------------------------------------------------------      
     |                   =====================                   |     
     |                           x T B                           |     
     |                   =====================                   |     
     |                         S. Grimme                         |     
     |          Mulliken Center for Theoretical Chemistry        |     
     |                    University of Bonn                     |     
      -----------------------------------------------------------      

   * xtb version 6.7.0 (08769fc) compiled by 'albert@albert-system' on 2024-03-04

   xtb is free software: you can redistribute it and/or modify it under
   the terms of the GNU Lesser General Public License as published by
   the Free Software Foundation, either version 3 of the License, or
   (at your option) any later version.
   
   xtb is distributed in the hope that it will be useful,
   but WITHOUT ANY WARRANTY; without even the implied warranty of
   MERCHANTABILITY or FITNESS FOR A PARTICULAR PURPOSE.  See the
   GNU Lesser General Public License for more details.
   
   Cite this work as:
   * C. Bannwarth, E. Caldeweyher, S. Ehlert, A. Hansen, P. Pracht,
     J. Seibert, S. Spicher, S. Grimme, WIREs Comput. Mol. Sci., 2020, 11,
     e01493. DOI: 10.1002/wcms.1493
   
   for GFN2-xTB:
   * C. Bannwarth, S. Ehlert and S. Grimme., J. Chem. Theory Comput., 2019,
     15, 1652-1671. DOI: 10.1021/acs.jctc.8b01176
   for GFN1-xTB:
   * S. Grimme, C. Bannwarth, P. Shushkov, J. Chem. Theory Comput., 2017,
     13, 1989-2009. DOI: 10.1021/acs.jctc.7b00118
   for GFN0-xTB:
   * P. Pracht, E. Caldeweyher, S. Ehlert, S. Grimme, ChemRxiv, 2019, preprint.
     DOI: 10.26434/chemrxiv.8326202.v1
   for GFN-FF:
   * S. Spicher and S. Grimme, Angew. Chem. Int. Ed., 2020, 59, 15665-15673.
     DOI: 10.1002/anie.202004239
   
   for ALPB and GBSA implicit solvation:
   * S. Ehlert, M. Stahn, S. Spicher, S. Grimme, J. Chem. Theory Comput.,
     2021, 17, 4250-4261. DOI: 10.1021/acs.jctc.1c00471
   
   for ddCOSMO and CPCM-X implicit solvation:
   * M. Stahn, S. Ehlert, S. Grimme, J. Phys. Chem. A,
     2023, XX, XXXX-XXXX. DOI: 10.1021/acs.jpca.3c04382
   
   for DFT-D4:
   * E. Caldeweyher, C. Bannwarth and S. Grimme, J. Chem. Phys., 2017,
     147, 034112. DOI: 10.1063/1.4993215
   * E. Caldeweyher, S. Ehlert, A. Hansen, H. Neugebauer, S. Spicher,
     C. Bannwarth and S. Grimme, J. Chem. Phys., 2019, 150, 154122.
     DOI: 10.1063/1.5090222
   * E. Caldeweyher, J.-M. Mewes, S. Ehlert and S. Grimme, Phys. Chem. Chem. Phys.
     2020, 22, 8499-8512. DOI: 10.1039/D0CP00502A
   
   for sTDA-xTB:
   * S. Grimme and C. Bannwarth, J. Chem. Phys., 2016, 145, 054103.
     DOI: 10.1063/1.4959605
   
   in the mass-spec context:
   * V. Asgeirsson, C. Bauer and S. Grimme, Chem. Sci., 2017, 8, 4879.
     DOI: 10.1039/c7sc00601b
   * J. Koopman and S. Grimme, ACS Omega 2019, 4, 12, 15120-15133.
     DOI: 10.1021/acsomega.9b02011
   
   for metadynamics refer to:
   * S. Grimme, J. Chem. Theory Comput., 2019, 155, 2847-2862
     DOI: 10.1021/acs.jctc.9b00143
   
   for SPH calculations refer to:
   * S. Spicher and S. Grimme, J. Chem. Theory Comput., 2021, 17, 1701-1714
     DOI: 10.1021/acs.jctc.0c01306
   
   for ONIOM refer to:
   * C. Plett, A. Katbashev, S. Ehlert, S. Grimme, M. Bursch,
     Phys. Chem. Chem. Phys., 2023, 25, 17860-17868. DOI: 10.1039/D3CP02178E
   
   for DIPRO refer to:
   * J. Kohn, N. Gildemeister, S. Grimme, D. Fazzi, A. Hansen,
     J. Chem. Phys., 2023, just accepted.
   
   for PTB refer to:
   * S. Grimme, M. Mueller, A. Hansen, J. Chem. Phys., 2023, 158, 124111.
     DOI: 10.1063/5.0137838
   
   with help from (in alphabetical order)
   P. Atkinson, C. Bannwarth, F. Bohle, G. Brandenburg, E. Caldeweyher
   M. Checinski, S. Dohm, S. Ehlert, S. Ehrlich, I. Gerasimov, C. Hölzer
   A. Katbashev, J. Kohn, J. Koopman, C. Lavigne, S. Lehtola, F. März, M. Müller,
   F. Musil, H. Neugebauer, J. Pisarek, C. Plett, P. Pracht, F. Pultar,
   J. Seibert, P. Shushkov, S. Spicher, M. Stahn, M. Steiner, T. Strunk,
   J. Stückrath, T. Rose, and J. Unsleber
   
 * started run on 2025/07/14 at 11:36:02.001     
   ID    Z sym.   atoms
    1   15 P      1
    2    6 C      2, 5, 9-14, 20, 23
    3    1 H      3, 4, 6-8, 15-19, 21, 22, 24-26

           -------------------------------------------------
          |                Calculation Setup                |
           -------------------------------------------------

          program call               : /home/minenky/programs/xtb/xtb-dist/bin/xtb m1_00_PEt2Ph-PBE0-D3-TZ-uniMM_61.xyz --charge 0 --T --ohess extreme --cycles 5000 --acc 0.01 --iterations 5000
          coordinate file            : m1_00_PEt2Ph-PBE0-D3-TZ-uniMM_61.xyz
          omp threads                :                    12

########################################################################
[WARNING] Please study the warnings concerning your input carefully
-1- prog_main_parseArguments: Unknown option '--T' provided
########################################################################

           -------------------------------------------------
          |                 G F N 2 - x T B                 |
           -------------------------------------------------

        Reference                      10.1021/acs.jctc.8b01176
      * Hamiltonian:
        H0-scaling (s, p, d)           1.850000    2.230000    2.230000
        zeta-weighting                 0.500000
      * Dispersion:
        s8                             2.700000
        a1                             0.520000
        a2                             5.000000
        s9                             5.000000
      * Repulsion:
        kExp                           1.500000    1.000000
        rExp                           1.000000
      * Coulomb:
        alpha                          2.000000
        third order                    shell-resolved
        anisotropic                    true
        a3                             3.000000
        a5                             4.000000
        cn-shift                       1.200000
        cn-exp                         4.000000
        max-rad                        5.000000


          ...................................................
          :                      SETUP                      :
          :.................................................:
          :  # basis functions                  65          :
          :  # atomic orbitals                  64          :
          :  # shells                           38          :
          :  # electrons                        60          :
          :  max. iterations                  5000          :
          :  Hamiltonian                  GFN2-xTB          :
          :  restarted?                      false          :
          :  GBSA solvation                  false          :
          :  PC potential                    false          :
          :  electronic temp.          300.0000000     K    :
          :  accuracy                    0.0100000          :
          :  -> integral cutoff          0.4500000E+02      :
          :  -> integral neglect         0.1000000E-09      :
          :  -> SCF convergence          0.1000000E-07 Eh   :
          :  -> wf. convergence          0.1000000E-05 e    :
          :  Broyden damping             0.4000000          :
          :  net charge                          0          :
          :  unpaired electrons                  0          :
          ...................................................

 iter      E             dE          RMSdq      gap      omega  full diag
   1    -32.0044401 -0.320044E+02  0.364E+00    4.00       0.0  T
   2    -32.0474948 -0.430547E-01  0.217E+00    3.55       1.0  T
   3    -32.0475147 -0.198368E-04  0.891E-01    3.31       1.0  T
   4    -32.0484706 -0.955878E-03  0.259E-01    3.34       1.0  T
   5    -32.0493630 -0.892404E-03  0.128E-01    3.38       1.0  T
   6    -32.0496015 -0.238497E-03  0.394E-02    3.37       1.0  T
   7    -32.0496142 -0.127252E-04  0.160E-02    3.37       1.2  T
   8    -32.0496151 -0.927712E-06  0.742E-03    3.37       2.6  T
   9    -32.0496157 -0.557651E-06  0.145E-03    3.37      13.5  T
  10    -32.0496157 -0.272139E-07  0.581E-04    3.37      33.8  T
  11    -32.0496157 -0.854378E-09  0.233E-04    3.37      84.0  T
  12    -32.0496157 -0.278696E-09  0.523E-05    3.37     374.7  T
  13    -32.0496157 -0.127471E-10  0.236E-05    3.37     831.8  T
  14    -32.0496157 -0.236611E-11  0.914E-06    3.37    2146.2  T
  15    -32.0496157 -0.461853E-12  0.377E-06    3.37    5208.6  T

   *** convergence criteria satisfied after 15 iterations ***

         #    Occupation            Energy/Eh            Energy/eV
      -------------------------------------------------------------
         1        2.0000           -0.6596361             -17.9496
       ...           ...                  ...                  ...
        24        2.0000           -0.4310810             -11.7303
        25        2.0000           -0.4246788             -11.5561
        26        2.0000           -0.4162540             -11.3268
        27        2.0000           -0.4086225             -11.1192
        28        2.0000           -0.4024628             -10.9516
        29        2.0000           -0.3989374             -10.8556
        30        2.0000           -0.3552156              -9.6659 (HOMO)
        31                         -0.2312982              -6.2939 (LUMO)
        32                         -0.2229381              -6.0665
        33                         -0.1568591              -4.2684
        34                         -0.1416369              -3.8541
        35                         -0.0940561              -2.5594
       ...                                ...                  ...
        64                          0.7504826              20.4217
      -------------------------------------------------------------
                  HL-Gap            0.1239174 Eh            3.3720 eV
             Fermi-level           -0.2932569 Eh           -7.9799 eV

 SCC (total)                   0 d,  0 h,  0 min,  0.087 sec
 SCC setup                      ...        0 min,  0.000 sec (  0.165%)
 Dispersion                     ...        0 min,  0.000 sec (  0.139%)
 classical contributions        ...        0 min,  0.000 sec (  0.011%)
 integral evaluation            ...        0 min,  0.002 sec (  2.065%)
 iterations                     ...        0 min,  0.083 sec ( 95.434%)
 molecular gradient             ...        0 min,  0.002 sec (  2.076%)
 printout                       ...        0 min,  0.000 sec (  0.087%)

         :::::::::::::::::::::::::::::::::::::::::::::::::::::
         ::                     SUMMARY                     ::
         :::::::::::::::::::::::::::::::::::::::::::::::::::::
         :: total energy             -31.534378255154 Eh    ::
         :: gradient norm              0.044410839560 Eh/a0 ::
         :: HOMO-LUMO gap              3.371964920078 eV    ::
         ::.................................................::
         :: SCC energy               -32.049383333140 Eh    ::
         :: -> isotropic ES            0.004344012729 Eh    ::
         :: -> anisotropic ES          0.006036935687 Eh    ::
         :: -> anisotropic XC          0.022135177540 Eh    ::
         :: -> dispersion             -0.024955752687 Eh    ::
         :: repulsion energy           0.515005077985 Eh    ::
         :: add. restraining           0.000000000000 Eh    ::
         :: total charge              -0.000000000000 e     ::
         :::::::::::::::::::::::::::::::::::::::::::::::::::::

      ----------------------------------------------------------- 
     |                   =====================                   |
     |                        A N C O P T                        |
     |                   =====================                   |
     |               Approximate Normal Coordinate               |
     |                Rational Function Optimizer                |
      ----------------------------------------------------------- 
      ----------------------------------------------------------- 
     |                   =====================                   |
     |                        A N C O P T                        |
     |                   =====================                   |
     |               Approximate Normal Coordinate               |
     |                Rational Function Optimizer                |
      ----------------------------------------------------------- 

          ...................................................
          :                      SETUP                      :
          :.................................................:
          :   optimization level           extreme          :
          :   max. optcycles                  5000          :
          :   ANC micro-cycles                  20          :
          :   degrees of freedom                72          :
          :.................................................:
          :   RF solver                   davidson          :
          :   write xtbopt.log                true          :
          :   linear?                        false          :
          :   energy convergence         0.5000000E-07 Eh   :
          :   grad. convergence          0.5000000E-04 Eh/α :
          :   maxmium RF displ.          1.0000000          :
          :   Hlow (freq-cutoff)         0.1000000E-01      :
          :   Hmax (freq-cutoff)         5.0000000          :
          :   S6 in model hess.         20.0000000          :
          ...................................................

generating ANC from model Hessian ...
Using Lindh-Hessian (1995)
 Shifting diagonal of input Hessian by   1.165822642797256E-002
 Lowest  eigenvalues of input Hessian
    0.010000    0.011204    0.000000    0.000000    0.000000    0.000000
    0.000000    0.000000    0.012845    0.013205    0.013320    0.014324
    0.017315    0.018913    0.021030    0.022179    0.025235    0.026135
 Highest eigenvalues
    1.349148    1.537222    1.564190    1.866419    1.968149    1.987997
 

........................................................................
.............................. CYCLE    1 ..............................
........................................................................

 iter      E             dE          RMSdq      gap      omega  full diag
   1    -32.0496157 -0.320496E+02  0.124E-06    3.37       0.0  T
   2    -32.0496157  0.284217E-13  0.569E-07    3.37   34440.9  T
   3    -32.0496157  0.426326E-13  0.426E-07    3.37   46034.4  T
     SCC iter.                  ...        0 min,  0.074 sec
     gradient                   ...        0 min,  0.002 sec
 * total energy  :   -31.5343783 Eh     change       -0.1421085E-13 Eh
   gradient norm :     0.0444108 Eh/α   predicted     0.0000000E+00 (-100.00%)
   displ. norm   :     0.6188151 α      lambda       -0.1517824E-01
   maximum displ.:     0.3611619 α      in ANC's #6, #1, #2, ...

........................................................................
.............................. CYCLE    2 ..............................
........................................................................

 iter      E             dE          RMSdq      gap      omega  full diag
   1    -32.0618114 -0.320618E+02  0.279E-01    3.47       0.0  T
   2    -32.0619587 -0.147281E-03  0.133E-01    3.49       1.0  T
   3    -32.0619720 -0.133678E-04  0.610E-02    3.50       1.0  T
   4    -32.0619778 -0.579161E-05  0.272E-02    3.50       1.0  T
   5    -32.0619793 -0.142974E-05  0.914E-03    3.50       2.1  T
   6    -32.0619806 -0.135261E-05  0.488E-03    3.50       4.0  T
   7    -32.0619807 -0.712115E-07  0.148E-03    3.50      13.3  T
   8    -32.0619807 -0.452364E-08  0.694E-04    3.50      28.3  T
   9    -32.0619807 -0.572343E-08  0.179E-04    3.50     109.8  T
  10    -32.0619807 -0.167908E-09  0.610E-05    3.50     321.3  T
  11    -32.0619807 -0.139124E-10  0.194E-05    3.50    1013.4  T
  12    -32.0619807 -0.314770E-11  0.914E-06    3.50    2146.2  T
  13    -32.0619807 -0.120792E-12  0.287E-06    3.50    6843.3  T
     SCC iter.                  ...        0 min,  0.076 sec
     gradient                   ...        0 min,  0.002 sec
 * total energy  :   -31.5434982 Eh     change       -0.9119898E-02 Eh
   gradient norm :     0.0170867 Eh/α   predicted    -0.1049525E-01 (  15.08%)
   displ. norm   :     0.3666725 α      lambda       -0.3053069E-02
   maximum displ.:     0.2672698 α      in ANC's #1, #6, #9, ...

........................................................................
.............................. CYCLE    3 ..............................
........................................................................

 iter      E             dE          RMSdq      gap      omega  full diag
   1    -32.0630026 -0.320630E+02  0.138E-01    3.50       0.0  T
   2    -32.0630143 -0.116927E-04  0.768E-02    3.51       1.0  T
   3    -32.0630146 -0.272209E-06  0.249E-02    3.51       1.0  T
   4    -32.0630160 -0.144694E-05  0.561E-03    3.51       3.5  T
   5    -32.0630161 -0.519832E-07  0.249E-03    3.51       7.9  T
   6    -32.0630161 -0.213100E-07  0.125E-03    3.51      15.7  T
   7    -32.0630161  0.208230E-08  0.554E-04    3.51      35.4  T
   8    -32.0630161 -0.472913E-08  0.166E-04    3.51     118.0  T
   9    -32.0630161 -0.149370E-09  0.449E-05    3.51     436.3  T
  10    -32.0630161 -0.530775E-11  0.163E-05    3.51    1206.8  T
  11    -32.0630161 -0.257216E-11  0.599E-06    3.51    3275.0  T
  12    -32.0630161 -0.262901E-12  0.207E-06    3.51    9452.0  T
     SCC iter.                  ...        0 min,  0.076 sec
     gradient                   ...        0 min,  0.002 sec
 * total energy  :   -31.5456296 Eh     change       -0.2131411E-02 Eh
   gradient norm :     0.0085496 Eh/α   predicted    -0.1731775E-02 ( -18.75%)
   displ. norm   :     0.3126366 α      lambda       -0.1189564E-02
   maximum displ.:     0.2225375 α      in ANC's #1, #9, #6, ...

........................................................................
.............................. CYCLE    4 ..............................
........................................................................

 iter      E             dE          RMSdq      gap      omega  full diag
   1    -32.0631867 -0.320632E+02  0.970E-02    3.52       0.0  T
   2    -32.0631912 -0.447747E-05  0.552E-02    3.52       1.0  T
   3    -32.0631907  0.534695E-06  0.143E-02    3.52       1.4  T
   4    -32.0631917 -0.108546E-05  0.479E-03    3.52       4.1  T
   5    -32.0631919 -0.159924E-06  0.230E-03    3.52       8.5  T
   6    -32.0631920 -0.810215E-07  0.985E-04    3.52      19.9  T
   7    -32.0631920 -0.574474E-10  0.337E-04    3.52      58.2  T
   8    -32.0631920 -0.109316E-08  0.113E-04    3.52     174.3  T
   9    -32.0631920 -0.939977E-10  0.351E-05    3.52     558.7  T
  10    -32.0631920 -0.157172E-10  0.913E-06    3.52    2148.8  T
  11    -32.0631920 -0.710543E-12  0.286E-06    3.52    6846.0  T
     SCC iter.                  ...        0 min,  0.075 sec
     gradient                   ...        0 min,  0.002 sec
 * total energy  :   -31.5464363 Eh     change       -0.8067656E-03 Eh
   gradient norm :     0.0071119 Eh/α   predicted    -0.6529294E-03 ( -19.07%)
   displ. norm   :     0.2381216 α      lambda       -0.4864024E-03
   maximum displ.:     0.1682378 α      in ANC's #1, #5, #9, ...

........................................................................
.............................. CYCLE    5 ..............................
........................................................................

 iter      E             dE          RMSdq      gap      omega  full diag
   1    -32.0640549 -0.320641E+02  0.648E-02    3.52       0.0  T
   2    -32.0640560 -0.111360E-05  0.380E-02    3.52       1.0  T
   3    -32.0640556  0.394103E-06  0.715E-03    3.52       2.7  T
   4    -32.0640561 -0.550418E-06  0.248E-03    3.52       7.9  T
   5    -32.0640562 -0.671385E-07  0.122E-03    3.52      16.1  T
   6    -32.0640562 -0.181240E-07  0.454E-04    3.52      43.2  T
   7    -32.0640562 -0.705924E-10  0.118E-04    3.52     166.1  T
   8    -32.0640562 -0.130306E-09  0.578E-05    3.52     339.6  T
   9    -32.0640562 -0.718359E-11  0.877E-06    3.52    2237.1  T
  10    -32.0640562 -0.625278E-12  0.357E-06    3.52    5497.2  T
     SCC iter.                  ...        0 min,  0.075 sec
     gradient                   ...        0 min,  0.002 sec
 * total energy  :   -31.5468114 Eh     change       -0.3750445E-03 Eh
   gradient norm :     0.0049069 Eh/α   predicted    -0.2569913E-03 ( -31.48%)
   displ. norm   :     0.3476026 α      lambda       -0.5123465E-03
   maximum displ.:     0.2234761 α      in ANC's #1, #5, #2, ...

........................................................................
.............................. CYCLE    6 ..............................
........................................................................

 iter      E             dE          RMSdq      gap      omega  full diag
   1    -32.0645491 -0.320645E+02  0.885E-02    3.52       0.0  T
   2    -32.0645509 -0.177513E-05  0.517E-02    3.53       1.0  T
   3    -32.0645504  0.453972E-06  0.873E-03    3.53       2.2  T
   4    -32.0645511 -0.700308E-06  0.281E-03    3.53       7.0  T
   5    -32.0645512 -0.800938E-07  0.143E-03    3.53      13.7  T
   6    -32.0645512 -0.283504E-07  0.447E-04    3.53      43.8  T
   7    -32.0645512  0.262546E-10  0.171E-04    3.53     114.9  T
   8    -32.0645512 -0.255440E-09  0.649E-05    3.53     302.3  T
   9    -32.0645512 -0.349374E-10  0.291E-05    3.53     674.2  T
  10    -32.0645512 -0.910205E-11  0.687E-06    3.53    2855.4  T
  11    -32.0645512 -0.298428E-12  0.280E-06    3.53    6994.2  T
     SCC iter.                  ...        0 min,  0.075 sec
     gradient                   ...        0 min,  0.002 sec
 * total energy  :   -31.5472225 Eh     change       -0.4111641E-03 Eh
   gradient norm :     0.0043158 Eh/α   predicted    -0.2871264E-03 ( -30.17%)
   displ. norm   :     0.5229208 α      lambda       -0.6470206E-03
   maximum displ.:     0.3039665 α      in ANC's #5, #1, #2, ...

........................................................................
.............................. CYCLE    7 ..............................
........................................................................

 iter      E             dE          RMSdq      gap      omega  full diag
   1    -32.0639052 -0.320639E+02  0.125E-01    3.53       0.0  T
   2    -32.0639088 -0.360373E-05  0.727E-02    3.53       1.0  T
   3    -32.0639077  0.116050E-05  0.137E-02    3.53       1.4  T
   4    -32.0639094 -0.174689E-05  0.336E-03    3.53       5.8  T
   5    -32.0639095 -0.796639E-07  0.178E-03    3.53      11.0  T
   6    -32.0639096 -0.525567E-07  0.566E-04    3.53      34.6  T
   7    -32.0639096 -0.246224E-09  0.235E-04    3.53      83.3  T
   8    -32.0639096 -0.404079E-09  0.849E-05    3.53     231.0  T
   9    -32.0639096 -0.916174E-10  0.351E-05    3.53     558.0  T
  10    -32.0639096 -0.850520E-11  0.951E-06    3.53    2063.3  T
  11    -32.0639096 -0.753175E-12  0.374E-06    3.53    5249.7  T
     SCC iter.                  ...        0 min,  0.075 sec
     gradient                   ...        0 min,  0.002 sec
 * total energy  :   -31.5477418 Eh     change       -0.5192736E-03 Eh
   gradient norm :     0.0070157 Eh/α   predicted    -0.4119749E-03 ( -20.66%)
   displ. norm   :     0.5525085 α      lambda       -0.7126862E-03
   maximum displ.:     0.3427959 α      in ANC's #5, #1, #6, ...

........................................................................
.............................. CYCLE    8 ..............................
........................................................................

 iter      E             dE          RMSdq      gap      omega  full diag
   1    -32.0646572 -0.320647E+02  0.120E-01    3.54       0.0  T
   2    -32.0646591 -0.191559E-05  0.710E-02    3.55       1.0  T
   3    -32.0646578  0.131253E-05  0.104E-02    3.54       1.9  T
   4    -32.0646596 -0.177650E-05  0.275E-03    3.55       7.1  T
   5    -32.0646597 -0.754877E-07  0.142E-03    3.55      13.8  T
   6    -32.0646597 -0.234151E-07  0.428E-04    3.55      45.8  T
   7    -32.0646597 -0.101906E-09  0.146E-04    3.55     134.2  T
   8    -32.0646597 -0.154586E-09  0.547E-05    3.55     358.6  T
   9    -32.0646597 -0.266525E-10  0.220E-05    3.55     891.9  T
  10    -32.0646597 -0.358824E-11  0.831E-06    3.55    2360.2  T
  11    -32.0646597 -0.873968E-12  0.292E-06    3.55    6706.9  T
     SCC iter.                  ...        0 min,  0.075 sec
     gradient                   ...        0 min,  0.002 sec
 * total energy  :   -31.5483005 Eh     change       -0.5587004E-03 Eh
   gradient norm :     0.0096208 Eh/α   predicted    -0.4651234E-03 ( -16.75%)
   displ. norm   :     0.4593746 α      lambda       -0.7203395E-03
   maximum displ.:     0.2806774 α      in ANC's #5, #6, #2, ...

........................................................................
.............................. CYCLE    9 ..............................
........................................................................

 iter      E             dE          RMSdq      gap      omega  full diag
   1    -32.0690077 -0.320690E+02  0.948E-02    3.56       0.0  T
   2    -32.0690091 -0.143645E-05  0.568E-02    3.56       1.0  T
   3    -32.0690082  0.909367E-06  0.752E-03    3.56       2.6  T
   4    -32.0690093 -0.111309E-05  0.346E-03    3.56       5.7  T
   5    -32.0690095 -0.191610E-06  0.892E-04    3.56      22.0  T
   6    -32.0690095 -0.355448E-08  0.423E-04    3.56      46.4  T
   7    -32.0690095 -0.671669E-09  0.173E-04    3.56     113.3  T
   8    -32.0690095 -0.316547E-09  0.667E-05    3.56     294.1  T
   9    -32.0690095 -0.390017E-10  0.264E-05    3.56     743.5  T
  10    -32.0690095 -0.260059E-11  0.873E-06    3.56    2246.7  T
  11    -32.0690095 -0.312639E-12  0.350E-06    3.56    5610.3  T
     SCC iter.                  ...        0 min,  0.075 sec
     gradient                   ...        0 min,  0.002 sec
 * total energy  :   -31.5488209 Eh     change       -0.5204239E-03 Eh
   gradient norm :     0.0083294 Eh/α   predicted    -0.4361788E-03 ( -16.19%)
   displ. norm   :     0.4938750 α      lambda       -0.4902218E-03
   maximum displ.:     0.2713946 α      in ANC's #5, #6, #1, ...

........................................................................
.............................. CYCLE   10 ..............................
........................................................................

 iter      E             dE          RMSdq      gap      omega  full diag
   1    -32.0657872 -0.320658E+02  0.107E-01    3.56       0.0  T
   2    -32.0657912 -0.394004E-05  0.632E-02    3.57       1.0  T
   3    -32.0657900  0.111680E-05  0.170E-02    3.57       1.2  T
   4    -32.0657918 -0.181246E-05  0.329E-03    3.57       6.0  T
   5    -32.0657919 -0.572812E-07  0.227E-03    3.57       8.6  T
   6    -32.0657919 -0.410553E-07  0.461E-04    3.57      42.6  T
   7    -32.0657919 -0.187264E-08  0.195E-04    3.57     100.5  T
   8    -32.0657919 -0.950848E-10  0.995E-05    3.57     197.1  T
   9    -32.0657919 -0.824798E-10  0.269E-05    3.57     728.3  T
  10    -32.0657919 -0.645883E-11  0.114E-05    3.57    1726.7  T
  11    -32.0657919 -0.123634E-11  0.353E-06    3.57    5551.4  T
  12    -32.0657919  0.000000E+00  0.131E-06    3.57   14926.4  T
     SCC iter.                  ...        0 min,  0.076 sec
     gradient                   ...        0 min,  0.002 sec
 * total energy  :   -31.5490552 Eh     change       -0.2342241E-03 Eh
   gradient norm :     0.0093035 Eh/α   predicted    -0.3049252E-03 (  30.19%)
   displ. norm   :     0.2155901 α      lambda       -0.4935808E-03
   maximum displ.:     0.1491662 α      in ANC's #6, #4, #9, ...

........................................................................
.............................. CYCLE   11 ..............................
........................................................................

 iter      E             dE          RMSdq      gap      omega  full diag
   1    -32.0735495 -0.320735E+02  0.839E-02    3.58       0.0  T
   2    -32.0735550 -0.552511E-05  0.440E-02    3.58       1.0  T
   3    -32.0735549  0.989407E-07  0.188E-02    3.58       1.0  T
   4    -32.0735557 -0.800653E-06  0.444E-03    3.58       4.4  T
   5    -32.0735557 -0.326760E-07  0.217E-03    3.58       9.0  T
   6    -32.0735558 -0.392966E-07  0.872E-04    3.58      22.5  T
   7    -32.0735558 -0.413841E-08  0.259E-04    3.58      75.6  T
   8    -32.0735558 -0.256385E-09  0.857E-05    3.58     228.8  T
   9    -32.0735558 -0.399609E-10  0.436E-05    3.58     449.6  T
  10    -32.0735558 -0.476774E-11  0.143E-05    3.58    1373.5  T
  11    -32.0735558 -0.115108E-11  0.648E-06    3.58    3028.2  T
  12    -32.0735558 -0.241585E-12  0.157E-06    3.58   12465.4  T
     SCC iter.                  ...        0 min,  0.076 sec
     gradient                   ...        0 min,  0.002 sec
 * total energy  :   -31.5491777 Eh     change       -0.1225512E-03 Eh
   gradient norm :     0.0064127 Eh/α   predicted    -0.2582609E-03 ( 110.74%)
   displ. norm   :     0.0871240 α      lambda       -0.1915719E-03
   maximum displ.:     0.0592198 α      in ANC's #1, #2, #4, ...

........................................................................
.............................. CYCLE   12 ..............................
........................................................................

 iter      E             dE          RMSdq      gap      omega  full diag
   1    -32.0703275 -0.320703E+02  0.345E-02    3.57       0.0  T
   2    -32.0703282 -0.680606E-06  0.191E-02    3.57       1.0  T
   3    -32.0703282  0.542873E-07  0.719E-03    3.57       2.7  T
   4    -32.0703283 -0.164770E-06  0.184E-03    3.57      10.7  T
   5    -32.0703283 -0.184853E-08  0.939E-04    3.57      20.9  T
   6    -32.0703283 -0.519545E-08  0.402E-04    3.57      48.8  T
   7    -32.0703283 -0.109645E-08  0.102E-04    3.57     192.8  T
   8    -32.0703283 -0.348734E-10  0.385E-05    3.57     509.8  T
   9    -32.0703283 -0.128182E-10  0.233E-05    3.57     841.4  T
  10    -32.0703283 -0.223110E-11  0.465E-06    3.57    4222.0  T
  11    -32.0703283 -0.220268E-12  0.194E-06    3.57   10090.6  T
     SCC iter.                  ...        0 min,  0.075 sec
     gradient                   ...        0 min,  0.002 sec
 * total energy  :   -31.5493049 Eh     change       -0.1271771E-03 Eh
   gradient norm :     0.0030113 Eh/α   predicted    -0.9651609E-04 ( -24.11%)
   displ. norm   :     0.1408611 α      lambda       -0.1552659E-03
   maximum displ.:     0.0797811 α      in ANC's #1, #2, #4, ...

........................................................................
.............................. CYCLE   13 ..............................
........................................................................

 iter      E             dE          RMSdq      gap      omega  full diag
   1    -32.0677343 -0.320677E+02  0.467E-02    3.57       0.0  T
   2    -32.0677354 -0.106884E-05  0.258E-02    3.57       1.0  T
   3    -32.0677354  0.842362E-08  0.884E-03    3.57       2.2  T
   4    -32.0677355 -0.140323E-06  0.185E-03    3.57      10.6  T
   5    -32.0677355 -0.131803E-08  0.966E-04    3.57      20.3  T
   6    -32.0677356 -0.778892E-08  0.444E-04    3.57      44.2  T
   7    -32.0677356 -0.553577E-09  0.136E-04    3.57     144.0  T
   8    -32.0677356 -0.710756E-10  0.366E-05    3.57     536.5  T
   9    -32.0677356 -0.247269E-11  0.148E-05    3.57    1320.7  T
  10    -32.0677356 -0.191847E-12  0.407E-06    3.57    4824.4  T
  11    -32.0677356 -0.149214E-12  0.157E-06    3.57   12464.5  T
     SCC iter.                  ...        0 min,  0.075 sec
     gradient                   ...        0 min,  0.002 sec
 * total energy  :   -31.5494084 Eh     change       -0.1035532E-03 Eh
   gradient norm :     0.0050161 Eh/α   predicted    -0.7918504E-04 ( -23.53%)
   displ. norm   :     0.1403276 α      lambda        0.6947368E-05
   maximum displ.:     0.0795013 α      in ANC's #1, #2, #4, ...

........................................................................
.............................. CYCLE   14 ..............................
........................................................................

 iter      E             dE          RMSdq      gap      omega  full diag
   1    -32.0647227 -0.320647E+02  0.472E-02    3.56       0.0  T
   2    -32.0647239 -0.120355E-05  0.260E-02    3.56       1.0  T
   3    -32.0647239  0.336311E-08  0.932E-03    3.56       2.1  T
   4    -32.0647240 -0.146731E-06  0.193E-03    3.56      10.1  T
   5    -32.0647240 -0.107825E-08  0.102E-03    3.56      19.2  T
   6    -32.0647241 -0.715917E-08  0.448E-04    3.56      43.8  T
   7    -32.0647241 -0.568946E-09  0.150E-04    3.56     130.9  T
   8    -32.0647241 -0.100719E-09  0.390E-05    3.56     502.9  T
   9    -32.0647241 -0.299138E-11  0.162E-05    3.56    1212.8  T
  10    -32.0647241 -0.255795E-12  0.456E-06    3.56    4299.1  T
  11    -32.0647241 -0.156319E-12  0.171E-06    3.56   11451.0  T
     SCC iter.                  ...        0 min,  0.075 sec
     gradient                   ...        0 min,  0.002 sec
 * total energy  :   -31.5493983 Eh     change        0.1010596E-04 Eh
   gradient norm :     0.0099996 Eh/α   predicted     0.3541624E-05 ( -64.96%)
   displ. norm   :     0.1459439 α      lambda       -0.2517275E-03
   maximum displ.:     0.1029413 α      in ANC's #4, #2, #5, ...

........................................................................
.............................. CYCLE   15 ..............................
........................................................................

 iter      E             dE          RMSdq      gap      omega  full diag
   1    -32.0652838 -0.320653E+02  0.655E-02    3.56       0.0  T
   2    -32.0652851 -0.133469E-05  0.345E-02    3.56       1.0  T
   3    -32.0652848  0.320231E-06  0.150E-02    3.56       1.3  T
   4    -32.0652854 -0.622156E-06  0.213E-03    3.56       9.2  T
   5    -32.0652854  0.725294E-09  0.135E-03    3.56      14.5  T
   6    -32.0652854 -0.105465E-07  0.462E-04    3.56      42.4  T
   7    -32.0652854 -0.877073E-09  0.133E-04    3.56     147.1  T
   8    -32.0652854 -0.423199E-10  0.362E-05    3.56     541.5  T
   9    -32.0652854 -0.106795E-10  0.163E-05    3.56    1205.1  T
  10    -32.0652854 -0.282085E-11  0.698E-06    3.56    2808.4  T
  11    -32.0652854 -0.433431E-12  0.127E-06    3.56   15388.3  T
     SCC iter.                  ...        0 min,  0.075 sec
     gradient                   ...        0 min,  0.002 sec
 * total energy  :   -31.5495604 Eh     change       -0.1620365E-03 Eh
   gradient norm :     0.0077808 Eh/α   predicted    -0.1285471E-03 ( -20.67%)
   displ. norm   :     0.2178087 α      lambda       -0.2645766E-03
   maximum displ.:     0.1210933 α      in ANC's #4, #2, #6, ...

........................................................................
.............................. CYCLE   16 ..............................
........................................................................

 iter      E             dE          RMSdq      gap      omega  full diag
   1    -32.0678893 -0.320679E+02  0.759E-02    3.56       0.0  T
   2    -32.0678904 -0.109110E-05  0.442E-02    3.57       1.0  T
   3    -32.0678903  0.419725E-07  0.677E-03    3.57       2.9  T
   4    -32.0678905 -0.186855E-06  0.187E-03    3.57      10.5  T
   5    -32.0678905 -0.129379E-07  0.965E-04    3.57      20.3  T
   6    -32.0678905 -0.800168E-08  0.452E-04    3.57      43.4  T
   7    -32.0678905 -0.844061E-09  0.133E-04    3.57     147.8  T
   8    -32.0678905 -0.310720E-10  0.478E-05    3.57     410.7  T
   9    -32.0678905 -0.106795E-10  0.169E-05    3.57    1163.2  T
  10    -32.0678905 -0.909495E-12  0.587E-06    3.57    3339.3  T
  11    -32.0678905 -0.589750E-12  0.150E-06    3.57   13044.0  T
     SCC iter.                  ...        0 min,  0.075 sec
     gradient                   ...        0 min,  0.002 sec
 * total energy  :   -31.5497610 Eh     change       -0.2006545E-03 Eh
   gradient norm :     0.0062427 Eh/α   predicted    -0.1385668E-03 ( -30.94%)
   displ. norm   :     0.4885231 α      lambda       -0.3995456E-03
   maximum displ.:     0.2711041 α      in ANC's #4, #2, #6, ...

........................................................................
.............................. CYCLE   17 ..............................
........................................................................

 iter      E             dE          RMSdq      gap      omega  full diag
   1    -32.0680619 -0.320681E+02  0.165E-01    3.56       0.0  T
   2    -32.0680662 -0.436979E-05  0.968E-02    3.57       1.0  T
   3    -32.0680659  0.355602E-06  0.117E-02    3.57       1.7  T
   4    -32.0680666 -0.770426E-06  0.399E-03    3.57       4.9  T
   5    -32.0680667 -0.111708E-06  0.185E-03    3.57      10.6  T
   6    -32.0680668 -0.446603E-07  0.771E-04    3.57      25.4  T
   7    -32.0680668 -0.584571E-09  0.192E-04    3.57     102.3  T
   8    -32.0680668 -0.318479E-09  0.596E-05    3.57     328.8  T
   9    -32.0680668 -0.491625E-10  0.242E-05    3.57     810.5  T
  10    -32.0680668 -0.391509E-11  0.116E-05    3.57    1697.3  T
  11    -32.0680668 -0.405009E-12  0.310E-06    3.57    6333.5  T
  12    -32.0680668 -0.568434E-13  0.856E-07    3.57   22914.7  T
     SCC iter.                  ...        0 min,  0.076 sec
     gradient                   ...        0 min,  0.002 sec
 * total energy  :   -31.5500728 Eh     change       -0.3117370E-03 Eh
   gradient norm :     0.0085312 Eh/α   predicted    -0.2474510E-03 ( -20.62%)
   displ. norm   :     0.5185612 α      lambda       -0.4843877E-03
   maximum displ.:     0.2833814 α      in ANC's #2, #4, #6, ...

........................................................................
.............................. CYCLE   18 ..............................
........................................................................

 iter      E             dE          RMSdq      gap      omega  full diag
   1    -32.0691457 -0.320691E+02  0.178E-01    3.56       0.0  T
   2    -32.0691533 -0.757307E-05  0.104E-01    3.57       1.0  T
   3    -32.0691517  0.154790E-05  0.203E-02    3.57       1.0  T
   4    -32.0691542 -0.251897E-05  0.496E-03    3.57       4.0  T
   5    -32.0691544 -0.128910E-06  0.254E-03    3.57       7.7  T
   6    -32.0691544 -0.885154E-07  0.942E-04    3.57      20.8  T
   7    -32.0691544 -0.122611E-09  0.241E-04    3.57      81.5  T
   8    -32.0691544 -0.612033E-09  0.969E-05    3.57     202.3  T
   9    -32.0691544 -0.460574E-10  0.415E-05    3.57     472.1  T
  10    -32.0691544 -0.136211E-10  0.160E-05    3.57    1224.1  T
  11    -32.0691544 -0.104450E-11  0.374E-06    3.57    5245.2  T
  12    -32.0691544 -0.852651E-13  0.146E-06    3.57   13404.1  T
     SCC iter.                  ...        0 min,  0.076 sec
     gradient                   ...        0 min,  0.002 sec
 * total energy  :   -31.5504235 Eh     change       -0.3507028E-03 Eh
   gradient norm :     0.0074018 Eh/α   predicted    -0.3073223E-03 ( -12.37%)
   displ. norm   :     0.5707193 α      lambda       -0.4258350E-03
   maximum displ.:     0.3316728 α      in ANC's #2, #4, #6, ...

........................................................................
.............................. CYCLE   19 ..............................
........................................................................

 iter      E             dE          RMSdq      gap      omega  full diag
   1    -32.0650099 -0.320650E+02  0.195E-01    3.55       0.0  T
   2    -32.0650166 -0.671277E-05  0.115E-01    3.56       1.0  T
   3    -32.0650147  0.186542E-05  0.181E-02    3.55       1.1  T
   4    -32.0650174 -0.268937E-05  0.507E-03    3.56       3.9  T
   5    -32.0650176 -0.224876E-06  0.237E-03    3.55       8.3  T
   6    -32.0650177 -0.579233E-07  0.101E-03    3.55      19.4  T
   7    -32.0650177 -0.196420E-08  0.317E-04    3.55      61.9  T
   8    -32.0650177 -0.625022E-09  0.729E-05    3.55     268.9  T
   9    -32.0650177 -0.529923E-10  0.425E-05    3.55     461.0  T
  10    -32.0650177 -0.626699E-11  0.160E-05    3.55    1222.2  T
  11    -32.0650177 -0.105160E-11  0.437E-06    3.55    4484.6  T
  12    -32.0650177  0.710543E-14  0.128E-06    3.55   15312.1  T
     SCC iter.                  ...        0 min,  0.077 sec
     gradient                   ...        0 min,  0.002 sec
 * total energy  :   -31.5505601 Eh     change       -0.1366777E-03 Eh
   gradient norm :     0.0112917 Eh/α   predicted    -0.2822713E-03 ( 106.52%)
   displ. norm   :     0.2986044 α      lambda       -0.8292133E-03
   maximum displ.:     0.1723375 α      in ANC's #5, #3, #2, ...

........................................................................
.............................. CYCLE   20 ..............................
........................................................................

 iter      E             dE          RMSdq      gap      omega  full diag
   1    -32.0793169 -0.320793E+02  0.143E-01    3.56       0.0  T
   2    -32.0793366 -0.196711E-04  0.823E-02    3.55       1.0  T
   3    -32.0793352  0.134869E-05  0.217E-02    3.56       1.0  T
   4    -32.0793379 -0.269783E-05  0.737E-03    3.56       2.7  T
   5    -32.0793384 -0.484416E-06  0.513E-03    3.56       3.8  T
   6    -32.0793386 -0.131536E-06  0.100E-03    3.56      19.6  T
   7    -32.0793386 -0.923082E-08  0.461E-04    3.56      42.6  T
   8    -32.0793386 -0.209397E-09  0.151E-04    3.56     130.0  T
   9    -32.0793386 -0.378890E-09  0.679E-05    3.56     288.9  T
  10    -32.0793386 -0.159801E-10  0.280E-05    3.56     699.6  T
  11    -32.0793386 -0.299138E-11  0.645E-06    3.56    3041.2  T
  12    -32.0793386 -0.454747E-12  0.224E-06    3.56    8767.8  T
     SCC iter.                  ...        0 min,  0.082 sec
     gradient                   ...        0 min,  0.002 sec
 * total energy  :   -31.5503077 Eh     change        0.2524784E-03 Eh
   gradient norm :     0.0234602 Eh/α   predicted    -0.4515789E-03 (-278.86%)
   displ. norm   :     0.1371319 α      lambda       -0.1180911E-02
   maximum displ.:     0.0918820 α      in ANC's #4, #16, #9, ...
 * RMSD in coord.:     0.8959839 α      energy gain  -0.1592941E-01 Eh

generating ANC from model Hessian ...
Using Lindh-Hessian (1995)
 Shifting diagonal of input Hessian by   9.215682180196715E-003
 Lowest  eigenvalues of input Hessian
    0.000000    0.000000    0.000000    0.000000    0.000000    0.000000
    0.010000    0.010327    0.010838    0.011463    0.012335    0.013079
    0.015126    0.017110    0.019012    0.020044    0.023168    0.024285
 Highest eigenvalues
    1.362403    1.549017    1.575354    1.880047    1.983715    2.003408
 

........................................................................
.............................. CYCLE   21 ..............................
........................................................................

 iter      E             dE          RMSdq      gap      omega  full diag
   1    -32.0704306 -0.320704E+02  0.847E-02    3.56       0.0  T
   2    -32.0704396 -0.891097E-05  0.481E-02    3.56       1.0  T
   3    -32.0704399 -0.383411E-06  0.130E-02    3.56       1.5  T
   4    -32.0704402 -0.304047E-06  0.446E-03    3.56       4.4  T
   5    -32.0704403 -0.440449E-07  0.283E-03    3.56       6.9  T
   6    -32.0704403 -0.614327E-07  0.753E-04    3.56      26.1  T
   7    -32.0704403 -0.506505E-08  0.367E-04    3.56      53.4  T
   8    -32.0704403 -0.194028E-09  0.935E-05    3.56     209.7  T
   9    -32.0704403 -0.678142E-10  0.466E-05    3.56     420.4  T
  10    -32.0704403 -0.627409E-11  0.196E-05    3.56     999.8  T
  11    -32.0704403 -0.220268E-11  0.597E-06    3.56    3284.7  T
  12    -32.0704403 -0.227374E-12  0.167E-06    3.56   11717.9  T
     SCC iter.                  ...        0 min,  0.080 sec
     gradient                   ...        0 min,  0.002 sec
 * total energy  :   -31.5508494 Eh     change       -0.5417804E-03 Eh
   gradient norm :     0.0080644 Eh/α   predicted     0.0000000E+00 (-100.00%)
   displ. norm   :     0.0735086 α      lambda       -0.1799283E-03
   maximum displ.:     0.0477347 α      in ANC's #1, #2, #7, ...

........................................................................
.............................. CYCLE   22 ..............................
........................................................................

 iter      E             dE          RMSdq      gap      omega  full diag
   1    -32.0715356 -0.320715E+02  0.371E-02    3.57       0.0  T
   2    -32.0715366 -0.957509E-06  0.215E-02    3.57       1.0  T
   3    -32.0715366 -0.151726E-07  0.449E-03    3.57       4.4  T
   4    -32.0715367 -0.604735E-07  0.122E-03    3.57      16.1  T
   5    -32.0715367 -0.174755E-08  0.837E-04    3.57      23.4  T
   6    -32.0715367 -0.633645E-08  0.275E-04    3.57      71.4  T
   7    -32.0715367 -0.352209E-09  0.104E-04    3.57     189.1  T
   8    -32.0715367 -0.546407E-10  0.361E-05    3.57     542.7  T
   9    -32.0715367 -0.556355E-11  0.132E-05    3.57    1490.7  T
  10    -32.0715367 -0.184031E-11  0.379E-06    3.57    5178.4  T
  11    -32.0715367 -0.135003E-12  0.156E-06    3.57   12604.3  T
     SCC iter.                  ...        0 min,  0.078 sec
     gradient                   ...        0 min,  0.002 sec
 * total energy  :   -31.5509774 Eh     change       -0.1279856E-03 Eh
   gradient norm :     0.0024766 Eh/α   predicted    -0.9099891E-04 ( -28.90%)
   displ. norm   :     0.1179037 α      lambda       -0.1057191E-03
   maximum displ.:     0.0832148 α      in ANC's #1, #2, #7, ...

........................................................................
.............................. CYCLE   23 ..............................
........................................................................

 iter      E             dE          RMSdq      gap      omega  full diag
   1    -32.0720166 -0.320720E+02  0.495E-02    3.57       0.0  T
   2    -32.0720170 -0.417580E-06  0.291E-02    3.57       1.0  T
   3    -32.0720170 -0.150100E-07  0.311E-03    3.57       6.3  T
   4    -32.0720171 -0.398357E-07  0.847E-04    3.57      23.1  T
   5    -32.0720171 -0.779252E-10  0.575E-04    3.57      34.1  T
   6    -32.0720171 -0.150757E-08  0.166E-04    3.57     118.5  T
   7    -32.0720171 -0.335625E-09  0.665E-05    3.57     295.0  T
   8    -32.0720171 -0.120650E-10  0.197E-05    3.57     997.0  T
   9    -32.0720171 -0.187583E-11  0.822E-06    3.57    2386.2  T
  10    -32.0720171 -0.262901E-12  0.203E-06    3.57    9637.3  T
     SCC iter.                  ...        0 min,  0.077 sec
     gradient                   ...        0 min,  0.002 sec
 * total energy  :   -31.5510566 Eh     change       -0.7917145E-04 Eh
   gradient norm :     0.0022634 Eh/α   predicted    -0.5362432E-04 ( -32.27%)
   displ. norm   :     0.1379875 α      lambda       -0.8219227E-04
   maximum displ.:     0.0991898 α      in ANC's #1, #2, #10, ...

........................................................................
.............................. CYCLE   24 ..............................
........................................................................

 iter      E             dE          RMSdq      gap      omega  full diag
   1    -32.0719585 -0.320720E+02  0.565E-02    3.58       0.0  T
   2    -32.0719587 -0.213770E-06  0.332E-02    3.58       1.0  T
   3    -32.0719586  0.512313E-07  0.335E-03    3.58       5.9  T
   4    -32.0719587 -0.104073E-06  0.838E-04    3.58      23.4  T
   5    -32.0719587 -0.208033E-08  0.486E-04    3.58      40.4  T
   6    -32.0719587 -0.239621E-08  0.186E-04    3.58     105.3  T
   7    -32.0719587 -0.210868E-09  0.553E-05    3.58     354.7  T
   8    -32.0719587 -0.104876E-10  0.161E-05    3.58    1218.7  T
   9    -32.0719587 -0.213873E-11  0.743E-06    3.58    2638.4  T
  10    -32.0719587 -0.312639E-12  0.215E-06    3.58    9119.8  T
     SCC iter.                  ...        0 min,  0.076 sec
     gradient                   ...        0 min,  0.002 sec
 * total energy  :   -31.5511288 Eh     change       -0.7223188E-04 Eh
   gradient norm :     0.0038397 Eh/α   predicted    -0.4187918E-04 ( -42.02%)
   displ. norm   :     0.1778865 α      lambda       -0.1057921E-03
   maximum displ.:     0.1281824 α      in ANC's #1, #2, #10, ...

........................................................................
.............................. CYCLE   25 ..............................
........................................................................

 iter      E             dE          RMSdq      gap      omega  full diag
   1    -32.0716401 -0.320716E+02  0.713E-02    3.58       0.0  T
   2    -32.0716403 -0.261187E-06  0.419E-02    3.58       1.0  T
   3    -32.0716400  0.300983E-06  0.473E-03    3.58       4.1  T
   4    -32.0716404 -0.396647E-06  0.107E-03    3.58      18.3  T
   5    -32.0716405 -0.133942E-07  0.521E-04    3.58      37.7  T
   6    -32.0716405 -0.163970E-08  0.187E-04    3.58     104.6  T
   7    -32.0716405 -0.107313E-09  0.474E-05    3.58     413.8  T
   8    -32.0716405 -0.172307E-10  0.173E-05    3.58    1132.3  T
   9    -32.0716405 -0.120792E-11  0.832E-06    3.58    2355.9  T
  10    -32.0716405 -0.781597E-12  0.213E-06    3.58    9211.9  T
     SCC iter.                  ...        0 min,  0.076 sec
     gradient                   ...        0 min,  0.002 sec
 * total energy  :   -31.5512246 Eh     change       -0.9572434E-04 Eh
   gradient norm :     0.0037654 Eh/α   predicted    -0.5457028E-04 ( -42.99%)
   displ. norm   :     0.2431437 α      lambda       -0.1379748E-03
   maximum displ.:     0.1778992 α      in ANC's #1, #2, #10, ...

........................................................................
.............................. CYCLE   26 ..............................
........................................................................

 iter      E             dE          RMSdq      gap      omega  full diag
   1    -32.0712337 -0.320712E+02  0.953E-02    3.58       0.0  T
   2    -32.0712343 -0.560450E-06  0.559E-02    3.58       1.0  T
   3    -32.0712334  0.891373E-06  0.743E-03    3.58       2.6  T
   4    -32.0712345 -0.109401E-05  0.167E-03    3.58      11.8  T
   5    -32.0712345 -0.397799E-07  0.791E-04    3.58      24.8  T
   6    -32.0712346 -0.391165E-08  0.279E-04    3.58      70.3  T
   7    -32.0712346 -0.547473E-10  0.648E-05    3.58     302.5  T
   8    -32.0712346 -0.309655E-10  0.263E-05    3.58     746.8  T
   9    -32.0712346 -0.667910E-12  0.120E-05    3.58    1631.2  T
  10    -32.0712346 -0.203215E-11  0.332E-06    3.58    5902.6  T
  11    -32.0712346 -0.923706E-13  0.941E-07    3.58   20847.1  T
     SCC iter.                  ...        0 min,  0.076 sec
     gradient                   ...        0 min,  0.017 sec
 * total energy  :   -31.5513438 Eh     change       -0.1192169E-03 Eh
   gradient norm :     0.0024790 Eh/α   predicted    -0.7306805E-04 ( -38.71%)
   displ. norm   :     0.2468742 α      lambda       -0.1182979E-03
   maximum displ.:     0.1878986 α      in ANC's #1, #2, #10, ...

........................................................................
.............................. CYCLE   27 ..............................
........................................................................

 iter      E             dE          RMSdq      gap      omega  full diag
   1    -32.0711354 -0.320711E+02  0.944E-02    3.58       0.0  T
   2    -32.0711361 -0.623417E-06  0.554E-02    3.58       1.0  T
   3    -32.0711350  0.104030E-05  0.772E-03    3.58       2.5  T
   4    -32.0711363 -0.123966E-05  0.188E-03    3.58      10.4  T
   5    -32.0711363 -0.628397E-07  0.789E-04    3.58      24.9  T
   6    -32.0711363 -0.313705E-08  0.285E-04    3.58      68.8  T
   7    -32.0711363 -0.169393E-10  0.754E-05    3.58     260.1  T
   8    -32.0711363 -0.317115E-10  0.297E-05    3.58     660.2  T
   9    -32.0711363 -0.241585E-11  0.126E-05    3.58    1553.0  T
  10    -32.0711363 -0.169820E-11  0.286E-06    3.58    6865.5  T
  11    -32.0711363  0.710543E-14  0.966E-07    3.58   20310.3  T
     SCC iter.                  ...        0 min,  0.089 sec
     gradient                   ...        0 min,  0.007 sec
 * total energy  :   -31.5514434 Eh     change       -0.9966181E-04 Eh
   gradient norm :     0.0016595 Eh/α   predicted    -0.6276357E-04 ( -37.02%)
   displ. norm   :     0.2611448 α      lambda       -0.7517514E-04
   maximum displ.:     0.2125475 α      in ANC's #1, #2, #10, ...

........................................................................
.............................. CYCLE   28 ..............................
........................................................................

 iter      E             dE          RMSdq      gap      omega  full diag
   1    -32.0717396 -0.320717E+02  0.971E-02    3.58       0.0  T
   2    -32.0717403 -0.711442E-06  0.570E-02    3.58       1.0  T
   3    -32.0717392  0.107587E-05  0.815E-03    3.58       2.4  T
   4    -32.0717405 -0.128498E-05  0.201E-03    3.58       9.7  T
   5    -32.0717406 -0.684482E-07  0.874E-04    3.58      22.4  T
   6    -32.0717406 -0.525401E-08  0.300E-04    3.58      65.3  T
   7    -32.0717406 -0.209965E-10  0.791E-05    3.58     247.9  T
   8    -32.0717406 -0.251035E-10  0.301E-05    3.58     652.5  T
   9    -32.0717406 -0.768097E-11  0.137E-05    3.58    1435.2  T
  10    -32.0717406 -0.114397E-11  0.338E-06    3.58    5799.6  T
  11    -32.0717406 -0.639488E-13  0.130E-06    3.58   15057.8  T
     SCC iter.                  ...        0 min,  0.090 sec
     gradient                   ...        0 min,  0.005 sec
 * total energy  :   -31.5515371 Eh     change       -0.9366495E-04 Eh
   gradient norm :     0.0022703 Eh/α   predicted    -0.3872802E-04 ( -58.65%)
   displ. norm   :     0.0992639 α      lambda       -0.4930318E-04
   maximum displ.:     0.0899010 α      in ANC's #1, #2, #3, ...

........................................................................
.............................. CYCLE   29 ..............................
........................................................................

 iter      E             dE          RMSdq      gap      omega  full diag
   1    -32.0723237 -0.320723E+02  0.356E-02    3.58       0.0  T
   2    -32.0723238 -0.114148E-06  0.209E-02    3.58       1.0  T
   3    -32.0723237  0.630152E-07  0.234E-03    3.58       8.4  T
   4    -32.0723238 -0.813166E-07  0.918E-04    3.58      21.4  T
   5    -32.0723238 -0.121356E-07  0.322E-04    3.58      60.9  T
   6    -32.0723238 -0.119798E-08  0.113E-04    3.58     173.3  T
   7    -32.0723238 -0.115818E-10  0.404E-05    3.58     485.6  T
   8    -32.0723238 -0.365219E-11  0.117E-05    3.58    1670.0  T
   9    -32.0723238 -0.211031E-11  0.419E-06    3.58    4678.0  T
  10    -32.0723238 -0.710543E-13  0.168E-06    3.58   11644.1  T
     SCC iter.                  ...        0 min,  0.078 sec
     gradient                   ...        0 min,  0.002 sec
 * total energy  :   -31.5515837 Eh     change       -0.4660415E-04 Eh
   gradient norm :     0.0020972 Eh/α   predicted    -0.2490494E-04 ( -46.56%)
   displ. norm   :     0.0955021 α      lambda       -0.5905266E-04
   maximum displ.:     0.0867579 α      in ANC's #1, #6, #3, ...

........................................................................
.............................. CYCLE   30 ..............................
........................................................................

 iter      E             dE          RMSdq      gap      omega  full diag
   1    -32.0730458 -0.320730E+02  0.323E-02    3.58       0.0  T
   2    -32.0730459 -0.900551E-07  0.189E-02    3.58       1.0  T
   3    -32.0730459  0.153183E-07  0.188E-03    3.59      10.4  T
   4    -32.0730459 -0.335364E-07  0.607E-04    3.59      32.3  T
   5    -32.0730459 -0.191243E-08  0.226E-04    3.59      86.6  T
   6    -32.0730459 -0.613220E-09  0.105E-04    3.59     186.9  T
   7    -32.0730459 -0.560547E-10  0.375E-05    3.59     523.1  T
   8    -32.0730459 -0.747491E-11  0.109E-05    3.59    1801.8  T
   9    -32.0730459 -0.873968E-12  0.383E-06    3.59    5119.8  T
  10    -32.0730459 -0.355271E-13  0.175E-06    3.59   11219.5  T
     SCC iter.                  ...        0 min,  0.076 sec
     gradient                   ...        0 min,  0.002 sec
 * total energy  :   -31.5516387 Eh     change       -0.5500611E-04 Eh
   gradient norm :     0.0017171 Eh/α   predicted    -0.2979818E-04 ( -45.83%)
   displ. norm   :     0.1887496 α      lambda       -0.7503916E-04
   maximum displ.:     0.1648563 α      in ANC's #1, #6, #2, ...

........................................................................
.............................. CYCLE   31 ..............................
........................................................................

 iter      E             dE          RMSdq      gap      omega  full diag
   1    -32.0732325 -0.320732E+02  0.596E-02    3.58       0.0  T
   2    -32.0732327 -0.289647E-06  0.351E-02    3.58       1.0  T
   3    -32.0732327  0.244738E-07  0.319E-03    3.58       6.1  T
   4    -32.0732328 -0.823193E-07  0.106E-03    3.58      18.4  T
   5    -32.0732328 -0.619391E-08  0.399E-04    3.58      49.1  T
   6    -32.0732328 -0.103918E-08  0.199E-04    3.58      98.6  T
   7    -32.0732328 -0.309065E-09  0.451E-05    3.58     435.0  T
   8    -32.0732328 -0.189573E-10  0.149E-05    3.58    1319.0  T
   9    -32.0732328 -0.161293E-11  0.774E-06    3.58    2533.1  T
  10    -32.0732328 -0.206057E-12  0.342E-06    3.58    5738.4  T
     SCC iter.                  ...        0 min,  0.076 sec
     gradient                   ...        0 min,  0.002 sec
 * total energy  :   -31.5517370 Eh     change       -0.9828010E-04 Eh
   gradient norm :     0.0013836 Eh/α   predicted    -0.3811391E-04 ( -61.22%)
   displ. norm   :     0.1677242 α      lambda       -0.5605924E-04
   maximum displ.:     0.1480055 α      in ANC's #1, #6, #2, ...

........................................................................
.............................. CYCLE   32 ..............................
........................................................................

 iter      E             dE          RMSdq      gap      omega  full diag
   1    -32.0728754 -0.320729E+02  0.562E-02    3.58       0.0  T
   2    -32.0728758 -0.333610E-06  0.328E-02    3.58       1.0  T
   3    -32.0728758  0.844388E-08  0.323E-03    3.58       6.1  T
   4    -32.0728758 -0.649935E-07  0.116E-03    3.58      17.0  T
   5    -32.0728758 -0.645433E-08  0.298E-04    3.58      65.8  T
   6    -32.0728758 -0.271093E-09  0.160E-04    3.58     122.3  T
   7    -32.0728758 -0.200785E-09  0.470E-05    3.58     417.3  T
   8    -32.0728758 -0.148574E-10  0.182E-05    3.58    1080.2  T
   9    -32.0728758 -0.213163E-11  0.488E-06    3.58    4022.4  T
  10    -32.0728758 -0.234479E-12  0.266E-06    3.58    7372.0  T
     SCC iter.                  ...        0 min,  0.075 sec
     gradient                   ...        0 min,  0.002 sec
 * total energy  :   -31.5518113 Eh     change       -0.7435560E-04 Eh
   gradient norm :     0.0013035 Eh/α   predicted    -0.2838375E-04 ( -61.83%)
   displ. norm   :     0.1262791 α      lambda       -0.3822942E-04
   maximum displ.:     0.1143953 α      in ANC's #1, #6, #2, ...

........................................................................
.............................. CYCLE   33 ..............................
........................................................................

 iter      E             dE          RMSdq      gap      omega  full diag
   1    -32.0726484 -0.320726E+02  0.444E-02    3.57       0.0  T
   2    -32.0726485 -0.147092E-06  0.261E-02    3.57       1.0  T
   3    -32.0726485  0.221668E-07  0.229E-03    3.57       8.6  T
   4    -32.0726486 -0.528298E-07  0.795E-04    3.57      24.7  T
   5    -32.0726486 -0.400330E-08  0.278E-04    3.57      70.5  T
   6    -32.0726486 -0.852872E-09  0.136E-04    3.57     144.7  T
   7    -32.0726486 -0.352074E-10  0.281E-05    3.57     698.0  T
   8    -32.0726486 -0.106297E-10  0.106E-05    3.57    1852.1  T
   9    -32.0726486 -0.128608E-11  0.475E-06    3.57    4127.8  T
  10    -32.0726486 -0.142109E-12  0.154E-06    3.57   12695.2  T
     SCC iter.                  ...        0 min,  0.076 sec
     gradient                   ...        0 min,  0.003 sec
 * total energy  :   -31.5518635 Eh     change       -0.5214861E-04 Eh
   gradient norm :     0.0010743 Eh/α   predicted    -0.1925295E-04 ( -63.08%)
   displ. norm   :     0.1071264 α      lambda       -0.3186475E-04
   maximum displ.:     0.0988630 α      in ANC's #1, #9, #4, ...

........................................................................
.............................. CYCLE   34 ..............................
........................................................................

 iter      E             dE          RMSdq      gap      omega  full diag
   1    -32.0725989 -0.320726E+02  0.399E-02    3.57       0.0  T
   2    -32.0725990 -0.127744E-06  0.234E-02    3.58       1.0  T
   3    -32.0725990  0.148297E-07  0.200E-03    3.58       9.8  T
   4    -32.0725991 -0.388366E-07  0.840E-04    3.58      23.3  T
   5    -32.0725991 -0.671287E-08  0.317E-04    3.58      61.9  T
   6    -32.0725991 -0.110450E-08  0.129E-04    3.58     151.9  T
   7    -32.0725991 -0.486722E-11  0.221E-05    3.58     888.2  T
   8    -32.0725991 -0.331823E-11  0.108E-05    3.58    1820.0  T
   9    -32.0725991 -0.135003E-11  0.319E-06    3.58    6152.9  T
  10    -32.0725991 -0.426326E-13  0.151E-06    3.58   12988.9  T
     SCC iter.                  ...        0 min,  0.082 sec
     gradient                   ...        0 min,  0.002 sec
 * total energy  :   -31.5519073 Eh     change       -0.4383050E-04 Eh
   gradient norm :     0.0009363 Eh/α   predicted    -0.1601553E-04 ( -63.46%)
   displ. norm   :     0.1083335 α      lambda       -0.3158089E-04
   maximum displ.:     0.1001943 α      in ANC's #1, #9, #3, ...

........................................................................
.............................. CYCLE   35 ..............................
........................................................................

 iter      E             dE          RMSdq      gap      omega  full diag
   1    -32.0725082 -0.320725E+02  0.421E-02    3.57       0.0  T
   2    -32.0725083 -0.150831E-06  0.246E-02    3.58       1.0  T
   3    -32.0725083  0.178888E-08  0.192E-03    3.58      10.2  T
   4    -32.0725083 -0.259118E-07  0.834E-04    3.58      23.5  T
   5    -32.0725083 -0.616465E-08  0.264E-04    3.58      74.2  T
   6    -32.0725083 -0.721883E-09  0.106E-04    3.58     185.4  T
   7    -32.0725083 -0.215366E-10  0.381E-05    3.58     515.2  T
   8    -32.0725083 -0.737543E-11  0.132E-05    3.58    1486.1  T
   9    -32.0725083 -0.305533E-11  0.480E-06    3.58    4083.7  T
  10    -32.0725083 -0.170530E-12  0.135E-06    3.58   14541.9  T
     SCC iter.                  ...        0 min,  0.080 sec
     gradient                   ...        0 min,  0.002 sec
 * total energy  :   -31.5519504 Eh     change       -0.4309269E-04 Eh
   gradient norm :     0.0009136 Eh/α   predicted    -0.1587536E-04 ( -63.16%)
   displ. norm   :     0.1185514 α      lambda       -0.3222232E-04
   maximum displ.:     0.1095257 α      in ANC's #1, #9, #3, ...

........................................................................
.............................. CYCLE   36 ..............................
........................................................................

 iter      E             dE          RMSdq      gap      omega  full diag
   1    -32.0724824 -0.320725E+02  0.444E-02    3.57       0.0  T
   2    -32.0724825 -0.153869E-06  0.261E-02    3.57       1.0  T
   3    -32.0724825  0.301201E-07  0.267E-03    3.57       7.3  T
   4    -32.0724826 -0.679979E-07  0.712E-04    3.57      27.5  T
   5    -32.0724826 -0.233673E-08  0.354E-04    3.57      55.5  T
   6    -32.0724826 -0.153193E-08  0.136E-04    3.57     144.1  T
   7    -32.0724826 -0.560618E-11  0.414E-05    3.57     473.6  T
   8    -32.0724826 -0.185949E-10  0.117E-05    3.57    1669.7  T
   9    -32.0724826 -0.142109E-11  0.558E-06    3.57    3516.0  T
  10    -32.0724826 -0.483169E-12  0.187E-06    3.57   10508.6  T
     SCC iter.                  ...        0 min,  0.078 sec
     gradient                   ...        0 min,  0.002 sec
 * total energy  :   -31.5519942 Eh     change       -0.4374158E-04 Eh
   gradient norm :     0.0008048 Eh/α   predicted    -0.1621420E-04 ( -62.93%)
   displ. norm   :     0.1271962 α      lambda       -0.3059908E-04
   maximum displ.:     0.1186529 α      in ANC's #1, #9, #3, ...

........................................................................
.............................. CYCLE   37 ..............................
........................................................................

 iter      E             dE          RMSdq      gap      omega  full diag
   1    -32.0726127 -0.320726E+02  0.475E-02    3.57       0.0  T
   2    -32.0726129 -0.155600E-06  0.279E-02    3.57       1.0  T
   3    -32.0726129  0.281645E-09  0.196E-03    3.57      10.0  T
   4    -32.0726129 -0.338259E-07  0.772E-04    3.57      25.4  T
   5    -32.0726129 -0.384458E-08  0.302E-04    3.57      65.0  T
   6    -32.0726129 -0.901494E-09  0.127E-04    3.57     155.0  T
   7    -32.0726129 -0.332250E-10  0.416E-05    3.57     472.0  T
   8    -32.0726129 -0.136922E-10  0.890E-06    3.57    2203.3  T
   9    -32.0726129 -0.383693E-12  0.467E-06    3.57    4199.2  T
     SCC iter.                  ...        0 min,  0.077 sec
     gradient                   ...        0 min,  0.002 sec
 * total energy  :   -31.5520358 Eh     change       -0.4159888E-04 Eh
   gradient norm :     0.0006882 Eh/α   predicted    -0.1541310E-04 ( -62.95%)
   displ. norm   :     0.1256729 α      lambda       -0.2718053E-04
   maximum displ.:     0.1196545 α      in ANC's #1, #9, #10, ...

........................................................................
.............................. CYCLE   38 ..............................
........................................................................

 iter      E             dE          RMSdq      gap      omega  full diag
   1    -32.0727364 -0.320727E+02  0.454E-02    3.57       0.0  T
   2    -32.0727365 -0.134527E-06  0.268E-02    3.57       1.0  T
   3    -32.0727365  0.168541E-07  0.248E-03    3.58       7.9  T
   4    -32.0727365 -0.548568E-07  0.574E-04    3.58      34.2  T
   5    -32.0727366 -0.858371E-09  0.261E-04    3.57      75.2  T
   6    -32.0727366 -0.589289E-09  0.118E-04    3.57     166.8  T
   7    -32.0727366 -0.771365E-10  0.327E-05    3.57     599.7  T
   8    -32.0727366 -0.464695E-11  0.962E-06    3.57    2039.3  T
   9    -32.0727366 -0.483169E-12  0.484E-06    3.57    4053.6  T
     SCC iter.                  ...        0 min,  0.077 sec
     gradient                   ...        0 min,  0.002 sec
 * total energy  :   -31.5520728 Eh     change       -0.3700762E-04 Eh
   gradient norm :     0.0007314 Eh/α   predicted    -0.1368888E-04 ( -63.01%)
   displ. norm   :     0.1200660 α      lambda       -0.2446744E-04
   maximum displ.:     0.1155731 α      in ANC's #1, #10, #9, ...

........................................................................
.............................. CYCLE   39 ..............................
........................................................................

 iter      E             dE          RMSdq      gap      omega  full diag
   1    -32.0728896 -0.320729E+02  0.426E-02    3.57       0.0  T
   2    -32.0728897 -0.119262E-06  0.251E-02    3.57       1.0  T
   3    -32.0728897  0.438557E-07  0.219E-03    3.57       8.9  T
   4    -32.0728897 -0.722218E-07  0.729E-04    3.57      26.9  T
   5    -32.0728897 -0.668138E-08  0.290E-04    3.57      67.5  T
   6    -32.0728897 -0.898090E-09  0.115E-04    3.57     170.0  T
   7    -32.0728897 -0.120934E-10  0.390E-05    3.57     503.1  T
   8    -32.0728897 -0.174722E-10  0.129E-05    3.57    1525.7  T
   9    -32.0728897 -0.225953E-11  0.492E-06    3.57    3982.4  T
  10    -32.0728897 -0.198952E-12  0.175E-06    3.57   11236.5  T
     SCC iter.                  ...        0 min,  0.078 sec
     gradient                   ...        0 min,  0.002 sec
 * total energy  :   -31.5521060 Eh     change       -0.3327530E-04 Eh
   gradient norm :     0.0007583 Eh/α   predicted    -0.1231652E-04 ( -62.99%)
   displ. norm   :     0.1199746 α      lambda       -0.2336736E-04
   maximum displ.:     0.1148630 α      in ANC's #1, #10, #3, ...

........................................................................
.............................. CYCLE   40 ..............................
........................................................................

 iter      E             dE          RMSdq      gap      omega  full diag
   1    -32.0730193 -0.320730E+02  0.409E-02    3.57       0.0  T
   2    -32.0730193 -0.883663E-07  0.241E-02    3.57       1.0  T
   3    -32.0730193 -0.166098E-08  0.156E-03    3.57      12.6  T
   4    -32.0730194 -0.244090E-07  0.608E-04    3.57      32.3  T
   5    -32.0730194 -0.205345E-08  0.247E-04    3.57      79.4  T
   6    -32.0730194 -0.516152E-09  0.117E-04    3.57     167.0  T
   7    -32.0730194 -0.706706E-10  0.255E-05    3.57     768.2  T
   8    -32.0730194 -0.313349E-11  0.837E-06    3.57    2344.0  T
   9    -32.0730194 -0.376588E-12  0.401E-06    3.57    4887.9  T
     SCC iter.                  ...        0 min,  0.075 sec
     gradient                   ...        0 min,  0.002 sec
 * total energy  :   -31.5521382 Eh     change       -0.3213372E-04 Eh
   gradient norm :     0.0005633 Eh/α   predicted    -0.1176292E-04 ( -63.39%)
   displ. norm   :     0.1327003 α      lambda       -0.2397146E-04
   maximum displ.:     0.1240176 α      in ANC's #1, #3, #4, ...

........................................................................
.............................. CYCLE   41 ..............................
........................................................................

 iter      E             dE          RMSdq      gap      omega  full diag
   1    -32.0730326 -0.320730E+02  0.428E-02    3.57       0.0  T
   2    -32.0730327 -0.132671E-06  0.252E-02    3.57       1.0  T
   3    -32.0730326  0.974903E-07  0.323E-03    3.57       6.1  T
   4    -32.0730328 -0.140904E-06  0.643E-04    3.57      30.5  T
   5    -32.0730328 -0.262602E-08  0.335E-04    3.57      58.6  T
   6    -32.0730328 -0.152986E-08  0.121E-04    3.57     162.0  T
   7    -32.0730328 -0.266311E-10  0.396E-05    3.57     495.8  T
   8    -32.0730328 -0.161293E-10  0.161E-05    3.57    1216.8  T
   9    -32.0730328 -0.342482E-11  0.503E-06    3.57    3901.1  T
  10    -32.0730328 -0.781597E-13  0.180E-06    3.57   10919.2  T
     SCC iter.                  ...        0 min,  0.076 sec
     gradient                   ...        0 min,  0.002 sec
 * total energy  :   -31.5521700 Eh     change       -0.3185083E-04 Eh
   gradient norm :     0.0007718 Eh/α   predicted    -0.1208105E-04 ( -62.07%)
   displ. norm   :     0.1456457 α      lambda       -0.2333554E-04
   maximum displ.:     0.1349081 α      in ANC's #1, #3, #4, ...

........................................................................
.............................. CYCLE   42 ..............................
........................................................................

 iter      E             dE          RMSdq      gap      omega  full diag
   1    -32.0729577 -0.320730E+02  0.466E-02    3.57       0.0  T
   2    -32.0729579 -0.121666E-06  0.274E-02    3.57       1.0  T
   3    -32.0729578  0.482249E-07  0.230E-03    3.57       8.5  T
   4    -32.0729579 -0.831110E-07  0.839E-04    3.57      23.4  T
   5    -32.0729579 -0.781245E-08  0.327E-04    3.57      59.9  T
   6    -32.0729579 -0.863778E-09  0.144E-04    3.57     136.0  T
   7    -32.0729579 -0.502922E-10  0.361E-05    3.57     543.5  T
   8    -32.0729579 -0.174083E-10  0.126E-05    3.57    1556.7  T
   9    -32.0729579 -0.131450E-11  0.491E-06    3.57    3995.8  T
  10    -32.0729579 -0.120792E-12  0.152E-06    3.57   12943.2  T
     SCC iter.                  ...        0 min,  0.075 sec
     gradient                   ...        0 min,  0.002 sec
 * total energy  :   -31.5521992 Eh     change       -0.2921114E-04 Eh
   gradient norm :     0.0007307 Eh/α   predicted    -0.1177900E-04 ( -59.68%)
   displ. norm   :     0.1567248 α      lambda       -0.2019522E-04
   maximum displ.:     0.1455742 α      in ANC's #1, #3, #4, ...
 * RMSD in coord.:     0.5624505 α      energy gain  -0.1891574E-02 Eh

generating ANC from model Hessian ...
Using Lindh-Hessian (1995)
 Shifting diagonal of input Hessian by   9.268827665435048E-003
 Lowest  eigenvalues of input Hessian
    0.000000    0.000000    0.000000    0.000000    0.000000    0.000000
    0.010000    0.010526    0.011005    0.011589    0.012193    0.013218
    0.015348    0.017026    0.019042    0.020007    0.024612    0.024994
 Highest eigenvalues
    1.364998    1.552418    1.576893    1.880125    1.986561    2.005842
 

........................................................................
.............................. CYCLE   43 ..............................
........................................................................

 iter      E             dE          RMSdq      gap      omega  full diag
   1    -32.0729317 -0.320729E+02  0.509E-02    3.57       0.0  T
   2    -32.0729318 -0.144044E-06  0.299E-02    3.57       1.0  T
   3    -32.0729317  0.689932E-07  0.254E-03    3.57       7.7  T
   4    -32.0729318 -0.103688E-06  0.105E-03    3.57      18.6  T
   5    -32.0729319 -0.168485E-07  0.366E-04    3.57      53.6  T
   6    -32.0729319 -0.630948E-09  0.167E-04    3.57     117.2  T
   7    -32.0729319 -0.238742E-10  0.399E-05    3.57     491.0  T
   8    -32.0729319 -0.254730E-10  0.122E-05    3.57    1601.6  T
   9    -32.0729319 -0.112976E-11  0.482E-06    3.57    4070.9  T
  10    -32.0729319 -0.994760E-13  0.142E-06    3.57   13774.2  T
     SCC iter.                  ...        0 min,  0.076 sec
     gradient                   ...        0 min,  0.002 sec
 * total energy  :   -31.5522216 Eh     change       -0.2239154E-04 Eh
   gradient norm :     0.0007968 Eh/α   predicted     0.0000000E+00 (-100.00%)
   displ. norm   :     0.0200436 α      lambda       -0.3873261E-05
   maximum displ.:     0.0177507 α      in ANC's #1, #3, #5, ...

........................................................................
.............................. CYCLE   44 ..............................
........................................................................

 iter      E             dE          RMSdq      gap      omega  full diag
   1    -32.0731998 -0.320732E+02  0.104E-02    3.57       0.0  T
   2    -32.0731998 -0.328336E-07  0.602E-03    3.57       3.3  T
   3    -32.0731998  0.190045E-07  0.176E-03    3.57      11.1  T
   4    -32.0731998 -0.258038E-07  0.435E-04    3.57      45.0  T
   5    -32.0731998  0.413699E-09  0.237E-04    3.57      82.7  T
   6    -32.0731998 -0.109129E-08  0.874E-05    3.57     224.3  T
   7    -32.0731998 -0.178773E-10  0.276E-05    3.57     711.7  T
   8    -32.0731998 -0.261480E-11  0.807E-06    3.57    2430.6  T
   9    -32.0731998 -0.753175E-12  0.286E-06    3.57    6861.8  T
     SCC iter.                  ...        0 min,  0.075 sec
     gradient                   ...        0 min,  0.002 sec
 * total energy  :   -31.5522248 Eh     change       -0.3190109E-05 Eh
   gradient norm :     0.0003389 Eh/α   predicted    -0.1948499E-05 ( -38.92%)
   displ. norm   :     0.0199499 α      lambda       -0.1831722E-05
   maximum displ.:     0.0182799 α      in ANC's #1, #5, #3, ...

........................................................................
.............................. CYCLE   45 ..............................
........................................................................

 iter      E             dE          RMSdq      gap      omega  full diag
   1    -32.0732797 -0.320733E+02  0.785E-03    3.57       0.0  T
   2    -32.0732797 -0.112323E-07  0.454E-03    3.57       4.3  T
   3    -32.0732797  0.228027E-09  0.547E-04    3.57      35.8  T
   4    -32.0732797 -0.128811E-08  0.240E-04    3.57      81.6  T
   5    -32.0732797 -0.618094E-09  0.666E-05    3.57     294.7  T
   6    -32.0732797 -0.873968E-10  0.283E-05    3.57     693.3  T
   7    -32.0732797 -0.230926E-11  0.888E-06    3.57    2208.9  T
   8    -32.0732797 -0.312639E-12  0.374E-06    3.57    5239.5  T
     SCC iter.                  ...        0 min,  0.075 sec
     gradient                   ...        0 min,  0.002 sec
 * total energy  :   -31.5522272 Eh     change       -0.2385191E-05 Eh
   gradient norm :     0.0004011 Eh/α   predicted    -0.9270776E-06 ( -61.13%)
   displ. norm   :     0.0245291 α      lambda       -0.2068758E-05
   maximum displ.:     0.0209953 α      in ANC's #1, #5, #3, ...

........................................................................
.............................. CYCLE   46 ..............................
........................................................................

 iter      E             dE          RMSdq      gap      omega  full diag
   1    -32.0731870 -0.320732E+02  0.970E-03    3.57       0.0  T
   2    -32.0731870 -0.104001E-07  0.564E-03    3.57       3.5  T
   3    -32.0731870  0.371898E-09  0.508E-04    3.57      38.6  T
   4    -32.0731870 -0.113179E-08  0.274E-04    3.57      71.7  T
   5    -32.0731870 -0.123617E-08  0.835E-05    3.57     235.0  T
   6    -32.0731870 -0.358042E-10  0.383E-05    3.57     511.5  T
   7    -32.0731870 -0.125766E-11  0.109E-05    3.57    1796.0  T
   8    -32.0731870 -0.675016E-12  0.267E-06    3.57    7335.7  T
   9    -32.0731870 -0.284217E-13  0.109E-06    3.57   17996.3  T
     SCC iter.                  ...        0 min,  0.075 sec
     gradient                   ...        0 min,  0.002 sec
 * total energy  :   -31.5522299 Eh     change       -0.2669641E-05 Eh
   gradient norm :     0.0002809 Eh/α   predicted    -0.1040163E-05 ( -61.04%)
   displ. norm   :     0.0289045 α      lambda       -0.2005378E-05
   maximum displ.:     0.0244491 α      in ANC's #1, #5, #3, ...

........................................................................
.............................. CYCLE   47 ..............................
........................................................................

 iter      E             dE          RMSdq      gap      omega  full diag
   1    -32.0730972 -0.320731E+02  0.106E-02    3.57       0.0  T
   2    -32.0730973 -0.128131E-07  0.622E-03    3.57       3.2  T
   3    -32.0730973  0.384366E-08  0.743E-04    3.57      26.4  T
   4    -32.0730973 -0.593721E-08  0.271E-04    3.57      72.5  T
   5    -32.0730973 -0.729564E-09  0.119E-04    3.57     165.2  T
   6    -32.0730973 -0.198831E-09  0.347E-05    3.57     565.7  T
[...]
         :: add. restraining           0.000000000000 Eh    ::
         :: total charge               0.000000000000 e     ::
         :::::::::::::::::::::::::::::::::::::::::::::::::::::

           ------------------------------------------------- 
          |                Numerical Hessian                |
           ------------------------------------------------- 
step length          :   0.00500
SCC accuracy         :   0.30000
Hessian scale factor :   1.00000
frozen atoms in %    :   0.00000    0
RMS gradient         :   0.00002
estimated CPU  time      1.10 min
estimated wall time      0.14 min

writing file <hessian>.

 projected vibrational frequencies (cm⁻¹)
eigval :       -0.00    -0.00     0.00     0.00     0.00     0.00
eigval :       50.29    83.39   107.37   119.90   173.77   175.77
eigval :      212.94   223.37   243.81   276.19   326.60   367.25
eigval :      372.40   394.54   490.68   585.50   623.09   658.70
eigval :      676.30   691.44   729.40   742.12   767.41   877.48
eigval :      899.66   928.21   933.04   968.94   986.61  1013.93
eigval :     1015.30  1025.65  1065.25  1071.61  1084.58  1115.56
eigval :     1121.28  1181.89  1202.40  1228.53  1234.73  1272.37
eigval :     1278.90  1281.73  1317.90  1407.60  1411.54  1421.79
eigval :     1453.77  1456.93  1464.40  1493.36  1497.20  1506.92
eigval :     1518.76  1576.80  1588.32  2925.23  2933.22  2948.32
eigval :     2950.78  3004.72  3007.27  3032.52  3040.10  3041.66
eigval :     3055.11  3065.30  3067.58  3073.32  3086.02  3091.58
           -------------------------------------------------
          |                Property Printout                |
           -------------------------------------------------

    * Orbital Energies and Occupations

         #    Occupation            Energy/Eh            Energy/eV
      -------------------------------------------------------------
         1        2.0000           -0.6585180             -17.9192
       ...           ...                  ...                  ...
        18        2.0000           -0.4755091             -12.9393
        19        2.0000           -0.4742409             -12.9048
        20        2.0000           -0.4673333             -12.7168
        21        2.0000           -0.4661343             -12.6842
        22        2.0000           -0.4546902             -12.3728
        23        2.0000           -0.4439916             -12.0816
        24        2.0000           -0.4429746             -12.0540
        25        2.0000           -0.4234827             -11.5236
        26        2.0000           -0.4137691             -11.2592
        27        2.0000           -0.4073774             -11.0853
        28        2.0000           -0.4016365             -10.9291
        29        2.0000           -0.4008184             -10.9068
        30        2.0000           -0.3609091              -9.8208 (HOMO)
        31                         -0.2297920              -6.2530 (LUMO)
        32                         -0.2211322              -6.0173
        33                         -0.1563612              -4.2548
        34                         -0.1484932              -4.0407
        35                         -0.0932490              -2.5374
        36                         -0.0101028              -0.2749
        37                          0.0642818               1.7492
        38                          0.0850962               2.3156
        39                          0.1147828               3.1234
        40                          0.1183676               3.2209
        41                          0.1337520               3.6396
       ...                                ...                  ...
        64                          0.7803491              21.2344
      -------------------------------------------------------------
                  HL-Gap            0.1311171 Eh            3.5679 eV
             Fermi-level           -0.2953505 Eh           -8.0369 eV

     #   Z          covCN         q      C6AA      α(0)
     1  15 P        2.970    -0.119   165.649    23.122
     2   6 C        3.747    -0.044    21.429     6.603
     3   1 H        0.926     0.042     2.425     2.435
     4   1 H        0.926     0.039     2.458     2.451
     5   6 C        3.770    -0.094    22.321     6.733
     6   1 H        0.925     0.040     2.449     2.447
     7   1 H        0.925     0.039     2.468     2.457
     8   1 H        0.925     0.031     2.571     2.507
     9   6 C        2.916     0.015    27.672     8.626
    10   6 C        3.024    -0.030    28.723     8.791
    11   6 C        2.964    -0.033    28.818     8.805
    12   6 C        2.918    -0.031    28.767     8.795
    13   6 C        2.919    -0.031    28.777     8.797
    14   6 C        2.920    -0.031    28.781     8.798
    15   1 H        0.925     0.035     2.521     2.483
    16   1 H        0.926     0.035     2.513     2.479
    17   1 H        0.926     0.028     2.621     2.532
    18   1 H        0.926     0.027     2.628     2.535
    19   1 H        0.926     0.028     2.621     2.532
    20   6 C        3.747    -0.042    21.400     6.598
    21   1 H        0.926     0.044     2.395     2.420
    22   1 H        0.926     0.038     2.472     2.459
    23   6 C        3.770    -0.097    22.385     6.742
    24   1 H        0.925     0.041     2.434     2.440
    25   1 H        0.925     0.039     2.465     2.455
    26   1 H        0.925     0.032     2.563     2.504

 Mol. C6AA /au·bohr⁶  :       7602.964391
 Mol. C8AA /au·bohr⁸  :     202662.297408
 Mol. α(0) /au        :        139.547419


Wiberg/Mayer (AO) data.
largest (>0.10) Wiberg bond orders for each atom

 ---------------------------------------------------------------------------
     #   Z sym  total        # sym  WBO       # sym  WBO       # sym  WBO
 ---------------------------------------------------------------------------
     1  15 P    3.389 --     2 C    1.026     9 C    1.026    20 C    1.009
     2   6 C    3.990 --     1 P    1.026     5 C    1.010     4 H    0.956
                             3 H    0.952
     3   1 H    0.998 --     2 C    0.952
     4   1 H    0.998 --     2 C    0.956
     5   6 C    3.996 --     2 C    1.010     7 H    0.984     8 H    0.983
                             6 H    0.981
     6   1 H    0.998 --     5 C    0.981
     7   1 H    0.998 --     5 C    0.984
     8   1 H    0.999 --     5 C    0.983
     9   6 C    3.982 --    11 C    1.400    10 C    1.383     1 P    1.026
                            14 C    0.105
    10   6 C    3.992 --    12 C    1.457     9 C    1.383    15 H    0.962
                            13 C    0.109
    11   6 C    3.993 --    13 C    1.441     9 C    1.400    16 H    0.962
                            12 C    0.106
    12   6 C    3.991 --    10 C    1.457    14 C    1.427    17 H    0.970
                            11 C    0.106
    13   6 C    3.993 --    14 C    1.441    11 C    1.441    18 H    0.970
                            10 C    0.109
    14   6 C    3.985 --    13 C    1.441    12 C    1.427    19 H    0.972
                             9 C    0.105
    15   1 H    0.999 --    10 C    0.962
    16   1 H    0.999 --    11 C    0.962
    17   1 H    0.999 --    12 C    0.970
    18   1 H    0.999 --    13 C    0.970
    19   1 H    0.999 --    14 C    0.972
    20   6 C    3.988 --    23 C    1.012     1 P    1.009    22 H    0.961
                            21 H    0.952
    21   1 H    0.998 --    20 C    0.952
    22   1 H    0.998 --    20 C    0.961
    23   6 C    3.996 --    20 C    1.012    26 H    0.983    24 H    0.982
                            25 H    0.981
    24   1 H    0.998 --    23 C    0.982
    25   1 H    0.998 --    23 C    0.981
    26   1 H    0.999 --    23 C    0.983
 ---------------------------------------------------------------------------

Topologies differ in total number of bonds
Writing topology from bond orders to xtbtopo.mol

molecular dipole:
                 x           y           z       tot (Debye)
 q only:       -0.060      -0.363       0.041
   full:        0.100      -0.664       0.056       1.714
molecular quadrupole (traceless):
                xx          xy          yy          xz          yz          zz
 q only:       -0.903      -1.622       0.042       0.880       2.524       0.861
  q+dip:        2.532      -2.347      -4.933      -0.210       3.346       2.401
   full:        1.253      -2.124      -2.651      -0.307       4.365       1.398

           -------------------------------------------------
          |                Geometry Summary                 |
           -------------------------------------------------

      molecular mass/u    :      166.2002322
   center of mass at/Å    :        3.0912936      -0.7239730      -3.1281260
  moments of inertia/u·Å² :        0.3372166E+03   0.7100739E+03   0.8386837E+03
rotational constants/cm⁻¹ :        0.4999051E-01   0.2374067E-01   0.2010011E-01

 * 23 selected distances

     #   Z          #   Z                                           value/Å
     2   6 C        3   1 H                                       1.0942753
     2   6 C        4   1 H                                       1.0953896
     2   6 C        5   6 C                                       1.5231182
     5   6 C        6   1 H                                       1.0877254
     5   6 C        7   1 H                                       1.0871573
     5   6 C        8   1 H                                       1.0898135
     9   6 C       10   6 C                                       1.3946495
     9   6 C       11   6 C                                       1.3897070
    10   6 C       12   6 C                                       1.3808430
    11   6 C       13   6 C                                       1.3843237
    12   6 C       14   6 C                                       1.3857548
    13   6 C       14   6 C                                       1.3836882
    10   6 C       15   1 H                                       1.0820703
    11   6 C       16   1 H                                       1.0795120 (min)
    12   6 C       17   1 H                                       1.0807769
    13   6 C       18   1 H                                       1.0809287
    14   6 C       19   1 H                                       1.0801587
    20   6 C       21   1 H                                       1.0941180
    20   6 C       22   1 H                                       1.0944247
    20   6 C       23   6 C                                       1.5236185 (max)
    23   6 C       24   1 H                                       1.0854920
    23   6 C       25   1 H                                       1.0872395
    23   6 C       26   1 H                                       1.0896528

 * 2 distinct bonds (by element types)

   Z      Z             #   av. dist./Å        max./Å        min./Å
   1 H    6 C          15     1.0872490     1.0953896     1.0795120
   6 C    6 C           8     1.4207129     1.5236185     1.3808430

           -------------------------------------------------
          |               Frequency Printout                |
           -------------------------------------------------
 projected vibrational frequencies (cm⁻¹)
eigval :       -0.00    -0.00     0.00     0.00     0.00     0.00
eigval :       50.29    83.39   107.37   119.90   173.77   175.77
eigval :      212.94   223.37   243.81   276.19   326.60   367.25
eigval :      372.40   394.54   490.68   585.50   623.09   658.70
eigval :      676.30   691.44   729.40   742.12   767.41   877.48
eigval :      899.66   928.21   933.04   968.94   986.61  1013.93
eigval :     1015.30  1025.65  1065.25  1071.61  1084.58  1115.56
eigval :     1121.28  1181.89  1202.40  1228.53  1234.73  1272.37
eigval :     1278.90  1281.73  1317.90  1407.60  1411.54  1421.79
eigval :     1453.77  1456.93  1464.40  1493.36  1497.20  1506.92
eigval :     1518.76  1576.80  1588.32  2925.23  2933.22  2948.32
eigval :     2950.78  3004.72  3007.27  3032.52  3040.10  3041.66
eigval :     3055.11  3065.30  3067.58  3073.32  3086.02  3091.58
 reduced masses (amu)
   1: 14.95   2: 12.86   3: 16.35   4: 14.12   5: 10.66   6: 10.10   7:  9.44   8:  9.30
   9:  4.89  10: 10.35  11:  7.03  12:  8.22  13:  9.65  14:  9.15  15:  7.49  16:  3.50
  17: 12.22  18: 15.50  19: 10.24  20: 15.79  21: 15.16  22: 11.17  23: 13.50  24: 10.99
  25: 14.97  26: 13.14  27:  5.62  28:  3.42  29:  5.13  30:  3.26  31:  3.60  32:  3.94
  33:  2.97  34: 11.07  35:  2.56  36:  3.84  37:  3.49  38:  4.10  39:  9.71  40:  9.14
  41:  8.10  42:  8.62  43:  4.36  44:  1.31  45:  1.91  46:  3.33  47:  3.10  48:  3.86
  49:  3.87  50:  3.70  51: 11.90  52:  2.97  53:  2.89  54:  8.51  55:  7.00  56:  1.92
  57:  3.21  58:  1.54  59:  1.57  60:  1.55  61:  1.55  62: 11.43  63: 11.43  64:  1.96
  65:  1.96  66:  1.52  67:  1.49  68:  1.82  69:  1.77  70:  1.77  71:  1.58  72:  1.73
  73:  1.79  74:  1.61  75:  1.76  76:  1.83  77:  1.87  78:  1.88
 IR intensities (km·mol⁻¹)
   1:  0.07   2:  0.05   3:  0.08   4:  0.07   5:  0.04   6:  0.07   7:  0.06   8:  0.24
   9:  0.21  10:  0.07  11:  0.37  12:  0.13  13:  0.01  14:  0.17  15:  0.19  16:  0.16
  17:  0.25  18:  1.06  19:  0.07  20:  0.21  21:  6.70  22:  0.06  23: 11.19  24:  2.33
  25: 16.09  26:  4.07  27: 16.19  28: 19.23  29: 31.90  30:  0.13  31:  0.11  32:  0.04
  33:  0.06  34:  2.11  35:  0.30  36:  0.75  37:  5.47  38:  5.47  39: 15.50  40: 11.95
  41:  0.66  42:  0.94  43:  0.10  44:  0.02  45:  0.57  46:  2.17  47:  4.81  48:  4.56
  49:  5.09  50:  1.17  51:  0.25  52:  0.97  53:  2.01  54:  0.86  55:  1.03  56:  1.27
  57:  0.93  58:  1.68  59:  2.41  60:  1.39  61:  1.32  62:  0.35  63:  6.33  64: 14.54
  65: 26.79  66: 17.52  67: 28.36  68: 55.38  69: 49.79  70: 23.81  71: 18.58  72: 24.95
  73: 14.26  74: 16.04  75:  5.10  76: 52.41  77: 75.37  78: 26.82
 Raman intensities (Ä⁴*amu⁻¹)
   1:  0.00   2:  0.00   3:  0.00   4:  0.00   5:  0.00   6:  0.00   7:  0.00   8:  0.00
   9:  0.00  10:  0.00  11:  0.00  12:  0.00  13:  0.00  14:  0.00  15:  0.00  16:  0.00
  17:  0.00  18:  0.00  19:  0.00  20:  0.00  21:  0.00  22:  0.00  23:  0.00  24:  0.00
  25:  0.00  26:  0.00  27:  0.00  28:  0.00  29:  0.00  30:  0.00  31:  0.00  32:  0.00
  33:  0.00  34:  0.00  35:  0.00  36:  0.00  37:  0.00  38:  0.00  39:  0.00  40:  0.00
  41:  0.00  42:  0.00  43:  0.00  44:  0.00  45:  0.00  46:  0.00  47:  0.00  48:  0.00
  49:  0.00  50:  0.00  51:  0.00  52:  0.00  53:  0.00  54:  0.00  55:  0.00  56:  0.00
  57:  0.00  58:  0.00  59:  0.00  60:  0.00  61:  0.00  62:  0.00  63:  0.00  64:  0.00
  65:  0.00  66:  0.00  67:  0.00  68:  0.00  69:  0.00  70:  0.00  71:  0.00  72:  0.00
  73:  0.00  74:  0.00  75:  0.00  76:  0.00  77:  0.00  78:  0.00
 output can be read by thermo (or use thermo option).
 writing <g98.out> molden fake output.
 recommended (thermochemical) frequency scaling factor: 1.0
           -------------------------------------------------
          |             Thermodynamic Functions             |
           -------------------------------------------------

Refinement of some symmetry elements was terminated before convergence was reached.
Some symmetry elements may remain unidentified.
Molecule has no symmetry elements
It seems to be the C1 point group
c1  symmetry found (for desy threshold:  0.10E+00) used in thermo

          ...................................................
          :                      SETUP                      :
          :.................................................:
          :  # frequencies                          72      :
          :  # imaginary freq.                       0      :
          :  linear?                             false      :
          :  only rotor calc.                    false      :
          :  symmetry                               c1      :
          :  rotational number                       1      :
          :  scaling factor                  1.0000000      :
          :  rotor cutoff                   50.0000000 cm⁻¹ :
          :  imag. cutoff                  -20.0000000 cm⁻¹ :
          :.................................................:

    mode    ω/cm⁻¹     T·S(HO)/kcal·mol⁻¹    T·S(FR)/kcal·mol⁻¹   T·S(vib)
   ------------------------------------------------------------------------
       1     50.29    -1.43285 ( 50.59%)    -1.05466 ( 49.41%)    -1.24597
       2     83.39    -1.13576 ( 88.56%)    -0.90491 ( 11.44%)    -1.10934
       3    107.37    -0.98863 ( 95.51%)    -0.83007 (  4.49%)    -0.98151
       4    119.90    -0.92483 ( 97.07%)    -0.79737 (  2.93%)    -0.92109
       5    173.77    -0.71387 ( 99.32%)    -0.68748 (  0.68%)    -0.71369
       6    175.77    -0.70747 ( 99.35%)    -0.68408 (  0.65%)    -0.70732
       7    212.94    -0.60176 ( 99.70%)    -0.62726 (  0.30%)    -0.60184
       8    223.37    -0.57590 ( 99.75%)    -0.61309 (  0.25%)    -0.57599
       9    243.81    -0.52918 ( 99.82%)    -0.58716 (  0.18%)    -0.52929
      10    276.19    -0.46426 ( 99.89%)    -0.55022 (  0.11%)    -0.46436
   ------------------------------------------------------------------------

   temp. (K)  partition function   enthalpy   heat capacity  entropy
                                   cal/mol     cal/K/mol   cal/K/mol   J/K/mol
 298.15  VIB  0.420E+04             5971.761     39.993     35.860
         ROT  0.108E+07              888.752      2.981     30.594
         INT  0.455E+10             6860.513     42.974     66.453
         TR   0.207E+28             1481.254      4.968     41.214
         TOT                        8341.7668    47.9423   107.6668   450.4780

       T/K    H(0)-H(T)+PV         H(T)/Eh          T*S/Eh         G(T)/Eh
   ------------------------------------------------------------------------
    298.15    0.132935E-01    0.232722E+00    0.511560E-01    0.181566E+00
   ------------------------------------------------------------------------

         :::::::::::::::::::::::::::::::::::::::::::::::::::::
         ::                  THERMODYNAMIC                  ::
         :::::::::::::::::::::::::::::::::::::::::::::::::::::
         :: total free energy         -31.370680420219 Eh   ::
         ::.................................................::
         :: total energy              -31.552246303310 Eh   ::
         :: zero point energy           0.219428411175 Eh   ::
         :: G(RRHO) w/o ZPVE           -0.037862528084 Eh   ::
         :: G(RRHO) contrib.            0.181565883091 Eh   ::
         :::::::::::::::::::::::::::::::::::::::::::::::::::::

optimized geometry written to: xtbopt.xyz


           -------------------------------------------------
          | TOTAL ENERGY              -31.552246303310 Eh   |
          | TOTAL ENTHALPY            -31.319524440540 Eh   |
          | TOTAL FREE ENERGY         -31.370680420219 Eh   |
          | GRADIENT NORM               0.000021687466 Eh/α |
          | HOMO-LUMO GAP               3.567877958665 eV   |
           -------------------------------------------------

------------------------------------------------------------------------
 * finished run on 2025/07/14 at 11:36:10.797     
------------------------------------------------------------------------
 total:
 * wall-time:     0 d,  0 h,  0 min,  8.796 sec
 *  cpu-time:     0 d,  0 h,  1 min, 32.576 sec
 * ratio c/w:    10.525 speedup
 SCF:
 * wall-time:     0 d,  0 h,  0 min,  0.087 sec
 *  cpu-time:     0 d,  0 h,  0 min,  1.045 sec
 * ratio c/w:    11.953 speedup
 ANC optimizer:
 * wall-time:     0 d,  0 h,  0 min,  5.507 sec
 *  cpu-time:     0 d,  0 h,  1 min,  5.225 sec
 * ratio c/w:    11.844 speedup
 analytical hessian:
 * wall-time:     0 d,  0 h,  0 min,  3.192 sec
 *  cpu-time:     0 d,  0 h,  0 min, 26.206 sec
 * ratio c/w:     8.210 speedup

