      -----------------------------------------------------------      
     |                   =====================                   |     
     |                           x T B                           |     
     |                   =====================                   |     
     |                         S. Grimme                         |     
     |          Mulliken Center for Theoretical Chemistry        |     
     |                    University of Bonn                     |     
      -----------------------------------------------------------      

   * xtb version 6.7.0 (08769fc) compiled by 'albert@albert-system' on 2024-03-04

   xtb is free software: you can redistribute it and/or modify it under
   the terms of the GNU Lesser General Public License as published by
   the Free Software Foundation, either version 3 of the License, or
   (at your option) any later version.
   
   xtb is distributed in the hope that it will be useful,
   but WITHOUT ANY WARRANTY; without even the implied warranty of
   MERCHANTABILITY or FITNESS FOR A PARTICULAR PURPOSE.  See the
   GNU Lesser General Public License for more details.
   
   Cite this work as:
   * C. Bannwarth, E. Caldeweyher, S. Ehlert, A. Hansen, P. Pracht,
     J. Seibert, S. Spicher, S. Grimme, WIREs Comput. Mol. Sci., 2020, 11,
     e01493. DOI: 10.1002/wcms.1493
   
   for GFN2-xTB:
   * C. Bannwarth, S. Ehlert and S. Grimme., J. Chem. Theory Comput., 2019,
     15, 1652-1671. DOI: 10.1021/acs.jctc.8b01176
   for GFN1-xTB:
   * S. Grimme, C. Bannwarth, P. Shushkov, J. Chem. Theory Comput., 2017,
     13, 1989-2009. DOI: 10.1021/acs.jctc.7b00118
   for GFN0-xTB:
   * P. Pracht, E. Caldeweyher, S. Ehlert, S. Grimme, ChemRxiv, 2019, preprint.
     DOI: 10.26434/chemrxiv.8326202.v1
   for GFN-FF:
   * S. Spicher and S. Grimme, Angew. Chem. Int. Ed., 2020, 59, 15665-15673.
     DOI: 10.1002/anie.202004239
   
   for ALPB and GBSA implicit solvation:
   * S. Ehlert, M. Stahn, S. Spicher, S. Grimme, J. Chem. Theory Comput.,
     2021, 17, 4250-4261. DOI: 10.1021/acs.jctc.1c00471
   
   for ddCOSMO and CPCM-X implicit solvation:
   * M. Stahn, S. Ehlert, S. Grimme, J. Phys. Chem. A,
     2023, XX, XXXX-XXXX. DOI: 10.1021/acs.jpca.3c04382
   
   for DFT-D4:
   * E. Caldeweyher, C. Bannwarth and S. Grimme, J. Chem. Phys., 2017,
     147, 034112. DOI: 10.1063/1.4993215
   * E. Caldeweyher, S. Ehlert, A. Hansen, H. Neugebauer, S. Spicher,
     C. Bannwarth and S. Grimme, J. Chem. Phys., 2019, 150, 154122.
     DOI: 10.1063/1.5090222
   * E. Caldeweyher, J.-M. Mewes, S. Ehlert and S. Grimme, Phys. Chem. Chem. Phys.
     2020, 22, 8499-8512. DOI: 10.1039/D0CP00502A
   
   for sTDA-xTB:
   * S. Grimme and C. Bannwarth, J. Chem. Phys., 2016, 145, 054103.
     DOI: 10.1063/1.4959605
   
   in the mass-spec context:
   * V. Asgeirsson, C. Bauer and S. Grimme, Chem. Sci., 2017, 8, 4879.
     DOI: 10.1039/c7sc00601b
   * J. Koopman and S. Grimme, ACS Omega 2019, 4, 12, 15120-15133.
     DOI: 10.1021/acsomega.9b02011
   
   for metadynamics refer to:
   * S. Grimme, J. Chem. Theory Comput., 2019, 155, 2847-2862
     DOI: 10.1021/acs.jctc.9b00143
   
   for SPH calculations refer to:
   * S. Spicher and S. Grimme, J. Chem. Theory Comput., 2021, 17, 1701-1714
     DOI: 10.1021/acs.jctc.0c01306
   
   for ONIOM refer to:
   * C. Plett, A. Katbashev, S. Ehlert, S. Grimme, M. Bursch,
     Phys. Chem. Chem. Phys., 2023, 25, 17860-17868. DOI: 10.1039/D3CP02178E
   
   for DIPRO refer to:
   * J. Kohn, N. Gildemeister, S. Grimme, D. Fazzi, A. Hansen,
     J. Chem. Phys., 2023, just accepted.
   
   for PTB refer to:
   * S. Grimme, M. Mueller, A. Hansen, J. Chem. Phys., 2023, 158, 124111.
     DOI: 10.1063/5.0137838
   
   with help from (in alphabetical order)
   P. Atkinson, C. Bannwarth, F. Bohle, G. Brandenburg, E. Caldeweyher
   M. Checinski, S. Dohm, S. Ehlert, S. Ehrlich, I. Gerasimov, C. Hölzer
   A. Katbashev, J. Kohn, J. Koopman, C. Lavigne, S. Lehtola, F. März, M. Müller,
   F. Musil, H. Neugebauer, J. Pisarek, C. Plett, P. Pracht, F. Pultar,
   J. Seibert, P. Shushkov, S. Spicher, M. Stahn, M. Steiner, T. Strunk,
   J. Stückrath, T. Rose, and J. Unsleber
   
 * started run on 2025/07/14 at 11:25:57.150     
   ID    Z sym.   atoms
    1   15 P      1
    2    6 C      2, 5, 9-14, 20, 23
    3    1 H      3, 4, 6-8, 15-19, 21, 22, 24-26

           -------------------------------------------------
          |                Calculation Setup                |
           -------------------------------------------------

          program call               : /home/minenky/programs/xtb/xtb-dist/bin/xtb m1_00_PEt2Ph-PBE0-D3-TZ-uniMM_0.xyz --charge 0 --T --ohess extreme --cycles 5000 --acc 0.01 --iterations 5000
          coordinate file            : m1_00_PEt2Ph-PBE0-D3-TZ-uniMM_0.xyz
          omp threads                :                    12

########################################################################
[WARNING] Please study the warnings concerning your input carefully
-1- prog_main_parseArguments: Unknown option '--T' provided
########################################################################

           -------------------------------------------------
          |                 G F N 2 - x T B                 |
           -------------------------------------------------

        Reference                      10.1021/acs.jctc.8b01176
      * Hamiltonian:
        H0-scaling (s, p, d)           1.850000    2.230000    2.230000
        zeta-weighting                 0.500000
      * Dispersion:
        s8                             2.700000
        a1                             0.520000
        a2                             5.000000
        s9                             5.000000
      * Repulsion:
        kExp                           1.500000    1.000000
        rExp                           1.000000
      * Coulomb:
        alpha                          2.000000
        third order                    shell-resolved
        anisotropic                    true
        a3                             3.000000
        a5                             4.000000
        cn-shift                       1.200000
        cn-exp                         4.000000
        max-rad                        5.000000


          ...................................................
          :                      SETUP                      :
          :.................................................:
          :  # basis functions                  65          :
          :  # atomic orbitals                  64          :
          :  # shells                           38          :
          :  # electrons                        60          :
          :  max. iterations                  5000          :
          :  Hamiltonian                  GFN2-xTB          :
          :  restarted?                      false          :
          :  GBSA solvation                  false          :
          :  PC potential                    false          :
          :  electronic temp.          300.0000000     K    :
          :  accuracy                    0.0100000          :
          :  -> integral cutoff          0.4500000E+02      :
          :  -> integral neglect         0.1000000E-09      :
          :  -> SCF convergence          0.1000000E-07 Eh   :
          :  -> wf. convergence          0.1000000E-05 e    :
          :  Broyden damping             0.4000000          :
          :  net charge                          0          :
          :  unpaired electrons                  0          :
          ...................................................

 iter      E             dE          RMSdq      gap      omega  full diag
   1    -32.0216971 -0.320217E+02  0.378E+00    4.11       0.0  T
   2    -32.0669128 -0.452157E-01  0.231E+00    3.70       1.0  T
   3    -32.0665419  0.370865E-03  0.870E-01    3.46       1.0  T
   4    -32.0675123 -0.970369E-03  0.277E-01    3.50       1.0  T
   5    -32.0689594 -0.144709E-02  0.115E-01    3.53       1.0  T
   6    -32.0691408 -0.181458E-03  0.440E-02    3.52       1.0  T
   7    -32.0691530 -0.121990E-04  0.167E-02    3.53       1.2  T
   8    -32.0691542 -0.119954E-05  0.702E-03    3.53       2.8  T
   9    -32.0691548 -0.586241E-06  0.164E-03    3.53      11.9  T
  10    -32.0691549 -0.350834E-07  0.536E-04    3.53      36.6  T
  11    -32.0691549 -0.956184E-09  0.264E-04    3.53      74.1  T
  12    -32.0691549 -0.437730E-09  0.507E-05    3.53     387.0  T
  13    -32.0691549 -0.578382E-11  0.243E-05    3.53     808.2  T
  14    -32.0691549 -0.436273E-11  0.902E-06    3.53    2173.9  T
  15    -32.0691549  0.568434E-13  0.294E-06    3.53    6680.5  T

   *** convergence criteria satisfied after 15 iterations ***

         #    Occupation            Energy/Eh            Energy/eV
      -------------------------------------------------------------
         1        2.0000           -0.6594855             -17.9455
       ...           ...                  ...                  ...
        24        2.0000           -0.4373145             -11.8999
        25        2.0000           -0.4229364             -11.5087
        26        2.0000           -0.4194345             -11.4134
        27        2.0000           -0.4064575             -11.0603
        28        2.0000           -0.4024099             -10.9501
        29        2.0000           -0.3991608             -10.8617
        30        2.0000           -0.3613249              -9.8322 (HOMO)
        31                         -0.2317370              -6.3059 (LUMO)
        32                         -0.2226562              -6.0588
        33                         -0.1464588              -3.9853
        34                         -0.1437877              -3.9127
        35                         -0.0940577              -2.5594
       ...                                ...                  ...
        64                          0.8082369              21.9932
      -------------------------------------------------------------
                  HL-Gap            0.1295879 Eh            3.5263 eV
             Fermi-level           -0.2965310 Eh           -8.0690 eV

 SCC (total)                   0 d,  0 h,  0 min,  0.100 sec
 SCC setup                      ...        0 min,  0.002 sec (  1.644%)
 Dispersion                     ...        0 min,  0.000 sec (  0.313%)
 classical contributions        ...        0 min,  0.000 sec (  0.010%)
 integral evaluation            ...        0 min,  0.003 sec (  3.027%)
 iterations                     ...        0 min,  0.092 sec ( 91.906%)
 molecular gradient             ...        0 min,  0.003 sec (  2.680%)
 printout                       ...        0 min,  0.000 sec (  0.401%)

         :::::::::::::::::::::::::::::::::::::::::::::::::::::
         ::                     SUMMARY                     ::
         :::::::::::::::::::::::::::::::::::::::::::::::::::::
         :: total energy             -31.554334601289 Eh    ::
         :: gradient norm              0.022143954187 Eh/a0 ::
         :: HOMO-LUMO gap              3.526265981014 eV    ::
         ::.................................................::
         :: SCC energy               -32.068887482399 Eh    ::
         :: -> isotropic ES            0.003974419255 Eh    ::
         :: -> anisotropic ES          0.005965195326 Eh    ::
         :: -> anisotropic XC          0.021684425072 Eh    ::
         :: -> dispersion             -0.024313710410 Eh    ::
         :: repulsion energy           0.514552881110 Eh    ::
         :: add. restraining           0.000000000000 Eh    ::
         :: total charge              -0.000000000000 e     ::
         :::::::::::::::::::::::::::::::::::::::::::::::::::::

      ----------------------------------------------------------- 
     |                   =====================                   |
     |                        A N C O P T                        |
     |                   =====================                   |
     |               Approximate Normal Coordinate               |
     |                Rational Function Optimizer                |
      ----------------------------------------------------------- 
      ----------------------------------------------------------- 
     |                   =====================                   |
     |                        A N C O P T                        |
     |                   =====================                   |
     |               Approximate Normal Coordinate               |
     |                Rational Function Optimizer                |
      ----------------------------------------------------------- 

          ...................................................
          :                      SETUP                      :
          :.................................................:
          :   optimization level           extreme          :
          :   max. optcycles                  5000          :
          :   ANC micro-cycles                  20          :
          :   degrees of freedom                72          :
          :.................................................:
          :   RF solver                   davidson          :
          :   write xtbopt.log                true          :
          :   linear?                        false          :
          :   energy convergence         0.5000000E-07 Eh   :
          :   grad. convergence          0.5000000E-04 Eh/α :
          :   maxmium RF displ.          1.0000000          :
          :   Hlow (freq-cutoff)         0.1000000E-01      :
          :   Hmax (freq-cutoff)         5.0000000          :
          :   S6 in model hess.         20.0000000          :
          ...................................................

generating ANC from model Hessian ...
Using Lindh-Hessian (1995)
 Shifting diagonal of input Hessian by   9.181316320659419E-003
 Lowest  eigenvalues of input Hessian
    0.000000    0.000000    0.000000    0.000000    0.000000    0.000000
    0.010000    0.010291    0.010618    0.011275    0.012366    0.012615
    0.015262    0.017596    0.018761    0.019617    0.023909    0.025095
 Highest eigenvalues
    1.346778    1.534933    1.561691    1.863984    1.965690    1.985654
 

........................................................................
.............................. CYCLE    1 ..............................
........................................................................

 iter      E             dE          RMSdq      gap      omega  full diag
   1    -32.0691549 -0.320692E+02  0.968E-07    3.53       0.0  T
   2    -32.0691549  0.000000E+00  0.552E-07    3.53   35546.0  T
   3    -32.0691549 -0.142109E-13  0.321E-07    3.53   61136.4  T
     SCC iter.                  ...        0 min,  0.075 sec
     gradient                   ...        0 min,  0.002 sec
 * total energy  :   -31.5543346 Eh     change       -0.1989520E-12 Eh
   gradient norm :     0.0221440 Eh/α   predicted     0.0000000E+00 (-100.00%)
   displ. norm   :     0.1279610 α      lambda       -0.1346011E-02
   maximum displ.:     0.0448151 α      in ANC's #12, #8, #7, ...

........................................................................
.............................. CYCLE    2 ..............................
........................................................................

 iter      E             dE          RMSdq      gap      omega  full diag
   1    -32.0743952 -0.320744E+02  0.152E-01    3.62       0.0  T
   2    -32.0744255 -0.302314E-04  0.737E-02    3.63       1.0  T
   3    -32.0744282 -0.273388E-05  0.260E-02    3.64       1.0  T
   4    -32.0744287 -0.477534E-06  0.113E-02    3.64       1.7  T
   5    -32.0744290 -0.342447E-06  0.278E-03    3.64       7.1  T
   6    -32.0744291 -0.905682E-07  0.147E-03    3.64      13.3  T
   7    -32.0744291 -0.185353E-07  0.526E-04    3.64      37.3  T
   8    -32.0744291 -0.740890E-09  0.169E-04    3.64     115.7  T
   9    -32.0744291 -0.223956E-09  0.580E-05    3.64     338.2  T
  10    -32.0744291 -0.479332E-10  0.231E-05    3.64     848.5  T
  11    -32.0744291 -0.375877E-11  0.897E-06    3.64    2186.1  T
  12    -32.0744291 -0.206057E-12  0.310E-06    3.64    6319.4  T
     SCC iter.                  ...        0 min,  0.077 sec
     gradient                   ...        0 min,  0.002 sec
 * total energy  :   -31.5550849 Eh     change       -0.7503415E-03 Eh
   gradient norm :     0.0087238 Eh/α   predicted    -0.6840275E-03 (  -8.84%)
   displ. norm   :     0.0729172 α      lambda       -0.2536746E-03
   maximum displ.:     0.0325085 α      in ANC's #8, #7, #1, ...

........................................................................
.............................. CYCLE    3 ..............................
........................................................................

 iter      E             dE          RMSdq      gap      omega  full diag
   1    -32.0769927 -0.320770E+02  0.569E-02    3.63       0.0  T
   2    -32.0769942 -0.141566E-05  0.326E-02    3.63       1.0  T
   3    -32.0769941  0.833717E-07  0.650E-03    3.62       3.0  T
   4    -32.0769943 -0.237549E-06  0.212E-03    3.62       9.3  T
   5    -32.0769943 -0.106026E-07  0.639E-04    3.62      30.7  T
   6    -32.0769943 -0.691154E-08  0.317E-04    3.62      61.8  T
   7    -32.0769943 -0.118925E-08  0.123E-04    3.62     158.9  T
   8    -32.0769943 -0.516636E-10  0.356E-05    3.62     551.0  T
   9    -32.0769943 -0.859046E-11  0.179E-05    3.62    1094.7  T
  10    -32.0769943 -0.186873E-11  0.738E-06    3.62    2657.0  T
  11    -32.0769943 -0.191847E-12  0.432E-06    3.62    4541.5  T
     SCC iter.                  ...        0 min,  0.076 sec
     gradient                   ...        0 min,  0.002 sec
 * total energy  :   -31.5552247 Eh     change       -0.1397228E-03 Eh
   gradient norm :     0.0025752 Eh/α   predicted    -0.1279172E-03 (  -8.45%)
   displ. norm   :     0.0425553 α      lambda       -0.3334917E-04
   maximum displ.:     0.0228755 α      in ANC's #1, #7, #5, ...

........................................................................
.............................. CYCLE    4 ..............................
........................................................................

 iter      E             dE          RMSdq      gap      omega  full diag
   1    -32.0767387 -0.320767E+02  0.167E-02    3.63       0.0  T
   2    -32.0767389 -0.218536E-06  0.996E-03    3.63       2.0  T
   3    -32.0767389  0.123441E-07  0.282E-03    3.63       7.0  T
   4    -32.0767389 -0.360590E-07  0.762E-04    3.63      25.7  T
   5    -32.0767389 -0.155747E-08  0.327E-04    3.63      60.0  T
   6    -32.0767389 -0.248038E-08  0.103E-04    3.63     191.2  T
   7    -32.0767389 -0.312284E-10  0.284E-05    3.63     691.4  T
   8    -32.0767389 -0.270006E-11  0.145E-05    3.63    1357.0  T
   9    -32.0767389 -0.646594E-12  0.527E-06    3.63    3719.5  T
  10    -32.0767389 -0.255795E-12  0.264E-06    3.63    7425.9  T
     SCC iter.                  ...        0 min,  0.076 sec
     gradient                   ...        0 min,  0.002 sec
 * total energy  :   -31.5552482 Eh     change       -0.2355246E-04 Eh
   gradient norm :     0.0009641 Eh/α   predicted    -0.1670895E-04 ( -29.06%)
   displ. norm   :     0.0856283 α      lambda       -0.2019355E-04
   maximum displ.:     0.0517535 α      in ANC's #1, #3, #5, ...

........................................................................
.............................. CYCLE    5 ..............................
........................................................................

 iter      E             dE          RMSdq      gap      omega  full diag
   1    -32.0760732 -0.320761E+02  0.247E-02    3.63       0.0  T
   2    -32.0760735 -0.215191E-06  0.144E-02    3.63       1.4  T
   3    -32.0760734  0.409268E-07  0.310E-03    3.63       6.3  T
   4    -32.0760735 -0.640376E-07  0.998E-04    3.63      19.7  T
   5    -32.0760735 -0.826354E-08  0.390E-04    3.63      50.3  T
   6    -32.0760735 -0.339084E-08  0.156E-04    3.63     126.1  T
   7    -32.0760735 -0.563389E-10  0.351E-05    3.63     558.0  T
   8    -32.0760735 -0.148290E-10  0.173E-05    3.63    1134.0  T
   9    -32.0760735 -0.272848E-11  0.664E-06    3.63    2954.6  T
  10    -32.0760735 -0.284217E-12  0.327E-06    3.63    6001.4  T
     SCC iter.                  ...        0 min,  0.076 sec
     gradient                   ...        0 min,  0.002 sec
 * total energy  :   -31.5552658 Eh     change       -0.1762213E-04 Eh
   gradient norm :     0.0018004 Eh/α   predicted    -0.1012998E-04 ( -42.52%)
   displ. norm   :     0.0663570 α      lambda       -0.1159760E-04
   maximum displ.:     0.0409881 α      in ANC's #1, #3, #5, ...

........................................................................
.............................. CYCLE    6 ..............................
........................................................................

 iter      E             dE          RMSdq      gap      omega  full diag
   1    -32.0760240 -0.320760E+02  0.177E-02    3.63       0.0  T
   2    -32.0760241 -0.598533E-07  0.103E-02    3.63       1.9  T
   3    -32.0760241  0.183239E-07  0.162E-03    3.63      12.1  T
   4    -32.0760241 -0.258587E-07  0.515E-04    3.63      38.1  T
   5    -32.0760241 -0.274398E-08  0.243E-04    3.63      80.7  T
   6    -32.0760241 -0.615792E-09  0.944E-05    3.63     207.6  T
   7    -32.0760241 -0.751044E-11  0.247E-05    3.63     792.7  T
   8    -32.0760241 -0.102176E-10  0.903E-06    3.63    2171.0  T
   9    -32.0760241 -0.159872E-11  0.305E-06    3.63    6435.1  T
     SCC iter.                  ...        0 min,  0.077 sec
     gradient                   ...        0 min,  0.002 sec
 * total energy  :   -31.5552817 Eh     change       -0.1582350E-04 Eh
   gradient norm :     0.0013610 Eh/α   predicted    -0.5810369E-05 ( -63.28%)
   displ. norm   :     0.1683329 α      lambda       -0.2919290E-04
   maximum displ.:     0.0991023 α      in ANC's #1, #3, #5, ...

........................................................................
.............................. CYCLE    7 ..............................
........................................................................

 iter      E             dE          RMSdq      gap      omega  full diag
   1    -32.0760851 -0.320761E+02  0.479E-02    3.63       0.0  T
   2    -32.0760855 -0.399685E-06  0.281E-02    3.64       1.0  T
   3    -32.0760853  0.131657E-06  0.430E-03    3.63       4.6  T
   4    -32.0760855 -0.185549E-06  0.133E-03    3.63      14.8  T
   5    -32.0760855 -0.178979E-07  0.635E-04    3.63      30.9  T
   6    -32.0760855 -0.439922E-08  0.247E-04    3.63      79.4  T
   7    -32.0760855 -0.859970E-10  0.614E-05    3.63     319.3  T
   8    -32.0760855 -0.561684E-10  0.223E-05    3.63     880.8  T
   9    -32.0760855 -0.766676E-11  0.917E-06    3.63    2138.4  T
  10    -32.0760855 -0.490274E-12  0.352E-06    3.63    5569.7  T
     SCC iter.                  ...        0 min,  0.076 sec
     gradient                   ...        0 min,  0.002 sec
 * total energy  :   -31.5553168 Eh     change       -0.3510454E-04 Eh
   gradient norm :     0.0012186 Eh/α   predicted    -0.1478063E-04 ( -57.90%)
   displ. norm   :     0.2354922 α      lambda       -0.2913755E-04
   maximum displ.:     0.1398221 α      in ANC's #1, #3, #5, ...

........................................................................
.............................. CYCLE    8 ..............................
........................................................................

 iter      E             dE          RMSdq      gap      omega  full diag
   1    -32.0758369 -0.320758E+02  0.682E-02    3.64       0.0  T
   2    -32.0758374 -0.490091E-06  0.401E-02    3.64       1.0  T
   3    -32.0758372  0.189278E-06  0.526E-03    3.64       3.7  T
   4    -32.0758375 -0.291828E-06  0.155E-03    3.64      12.7  T
   5    -32.0758375 -0.150589E-07  0.785E-04    3.64      25.0  T
   6    -32.0758375 -0.536225E-08  0.321E-04    3.64      61.1  T
   7    -32.0758375 -0.186247E-09  0.796E-05    3.64     246.4  T
   8    -32.0758375 -0.758291E-10  0.311E-05    3.64     630.2  T
   9    -32.0758375 -0.138982E-10  0.138E-05    3.64    1426.2  T
  10    -32.0758375 -0.888178E-12  0.459E-06    3.64    4270.9  T
  11    -32.0758375 -0.639488E-13  0.115E-06    3.64   17008.0  T
     SCC iter.                  ...        0 min,  0.076 sec
     gradient                   ...        0 min,  0.002 sec
 * total energy  :   -31.5553497 Eh     change       -0.3294464E-04 Eh
   gradient norm :     0.0021201 Eh/α   predicted    -0.1493137E-04 ( -54.68%)
   displ. norm   :     0.1413102 α      lambda       -0.2329251E-04
   maximum displ.:     0.0857852 α      in ANC's #1, #3, #5, ...

........................................................................
.............................. CYCLE    9 ..............................
........................................................................

 iter      E             dE          RMSdq      gap      omega  full diag
   1    -32.0760029 -0.320760E+02  0.428E-02    3.64       0.0  T
   2    -32.0760031 -0.169182E-06  0.251E-02    3.64       1.0  T
   3    -32.0760030  0.482196E-07  0.305E-03    3.64       6.4  T
   4    -32.0760031 -0.828621E-07  0.962E-04    3.64      20.4  T
   5    -32.0760031 -0.631051E-08  0.441E-04    3.64      44.5  T
   6    -32.0760031 -0.233280E-08  0.201E-04    3.64      97.6  T
   7    -32.0760031 -0.707985E-10  0.410E-05    3.64     478.7  T
   8    -32.0760031 -0.190354E-10  0.180E-05    3.64    1087.4  T
   9    -32.0760031 -0.382983E-11  0.832E-06    3.64    2358.2  T
  10    -32.0760031 -0.277112E-12  0.265E-06    3.64    7412.8  T
     SCC iter.                  ...        0 min,  0.076 sec
     gradient                   ...        0 min,  0.002 sec
 * total energy  :   -31.5553701 Eh     change       -0.2037262E-04 Eh
   gradient norm :     0.0019040 Eh/α   predicted    -0.1188065E-04 ( -41.68%)
   displ. norm   :     0.3193029 α      lambda       -0.3513914E-04
   maximum displ.:     0.1949857 α      in ANC's #1, #3, #2, ...

........................................................................
.............................. CYCLE   10 ..............................
........................................................................

 iter      E             dE          RMSdq      gap      omega  full diag
   1    -32.0761083 -0.320761E+02  0.999E-02    3.64       0.0  T
   2    -32.0761091 -0.831332E-06  0.585E-02    3.64       1.0  T
   3    -32.0761089  0.215502E-06  0.692E-03    3.64       2.8  T
   4    -32.0761093 -0.409581E-06  0.199E-03    3.64       9.8  T
   5    -32.0761093 -0.191887E-07  0.957E-04    3.64      20.5  T
   6    -32.0761094 -0.106463E-07  0.436E-04    3.64      44.9  T
   7    -32.0761094 -0.364238E-09  0.813E-05    3.64     241.1  T
   8    -32.0761094 -0.489564E-10  0.392E-05    3.64     500.5  T
   9    -32.0761094 -0.171028E-10  0.184E-05    3.64    1066.3  T
  10    -32.0761094 -0.859757E-12  0.511E-06    3.64    3840.5  T
  11    -32.0761094 -0.156319E-12  0.170E-06    3.64   11533.6  T
     SCC iter.                  ...        0 min,  0.076 sec
     gradient                   ...        0 min,  0.002 sec
 * total energy  :   -31.5554113 Eh     change       -0.4118584E-04 Eh
   gradient norm :     0.0011785 Eh/α   predicted    -0.1837227E-04 ( -55.39%)
   displ. norm   :     0.2627151 α      lambda       -0.2554714E-04
   maximum displ.:     0.1593281 α      in ANC's #1, #3, #2, ...

........................................................................
.............................. CYCLE   11 ..............................
........................................................................

 iter      E             dE          RMSdq      gap      omega  full diag
   1    -32.0762228 -0.320762E+02  0.863E-02    3.64       0.0  T
   2    -32.0762235 -0.620677E-06  0.504E-02    3.65       1.0  T
   3    -32.0762233  0.143320E-06  0.585E-03    3.65       3.4  T
   4    -32.0762236 -0.282643E-06  0.165E-03    3.65      11.9  T
   5    -32.0762236 -0.144864E-07  0.773E-04    3.65      25.4  T
   6    -32.0762236 -0.697538E-08  0.348E-04    3.65      56.3  T
   7    -32.0762236 -0.238195E-09  0.658E-05    3.65     298.0  T
   8    -32.0762236 -0.287628E-10  0.319E-05    3.65     614.0  T
   9    -32.0762236 -0.116103E-10  0.142E-05    3.65    1381.7  T
  10    -32.0762236 -0.575540E-12  0.450E-06    3.65    4353.4  T
  11    -32.0762236 -0.127898E-12  0.149E-06    3.65   13119.8  T
     SCC iter.                  ...        0 min,  0.076 sec
     gradient                   ...        0 min,  0.002 sec
 * total energy  :   -31.5554423 Eh     change       -0.3107175E-04 Eh
   gradient norm :     0.0009170 Eh/α   predicted    -0.1316705E-04 ( -57.62%)
   displ. norm   :     0.1560494 α      lambda       -0.1747632E-04
   maximum displ.:     0.0976172 α      in ANC's #2, #1, #3, ...

........................................................................
.............................. CYCLE   12 ..............................
........................................................................

 iter      E             dE          RMSdq      gap      omega  full diag
   1    -32.0770771 -0.320771E+02  0.571E-02    3.65       0.0  T
   2    -32.0770774 -0.267619E-06  0.334E-02    3.65       1.0  T
   3    -32.0770773  0.542684E-07  0.365E-03    3.65       5.4  T
   4    -32.0770774 -0.110875E-06  0.100E-03    3.65      19.6  T
   5    -32.0770774 -0.590526E-08  0.486E-04    3.65      40.3  T
   6    -32.0770774 -0.253469E-08  0.219E-04    3.65      89.6  T
   7    -32.0770774 -0.994191E-10  0.533E-05    3.65     368.1  T
   8    -32.0770774 -0.180975E-10  0.224E-05    3.65     875.5  T
   9    -32.0770774 -0.552802E-11  0.956E-06    3.65    2051.5  T
  10    -32.0770774 -0.142109E-12  0.307E-06    3.65    6385.6  T
     SCC iter.                  ...        0 min,  0.083 sec
     gradient                   ...        0 min,  0.002 sec
 * total energy  :   -31.5554638 Eh     change       -0.2141388E-04 Eh
   gradient norm :     0.0012362 Eh/α   predicted    -0.8833160E-05 ( -58.75%)
   displ. norm   :     0.1249500 α      lambda       -0.1275069E-04
   maximum displ.:     0.0798998 α      in ANC's #2, #1, #3, ...

........................................................................
.............................. CYCLE   13 ..............................
........................................................................

 iter      E             dE          RMSdq      gap      omega  full diag
   1    -32.0764885 -0.320765E+02  0.474E-02    3.65       0.0  T
   2    -32.0764887 -0.204358E-06  0.277E-02    3.65       1.0  T
   3    -32.0764887  0.440658E-07  0.306E-03    3.65       6.4  T
   4    -32.0764887 -0.814332E-07  0.919E-04    3.65      21.4  T
   5    -32.0764887 -0.632410E-08  0.388E-04    3.65      50.6  T
   6    -32.0764887 -0.153425E-08  0.189E-04    3.65     104.0  T
   7    -32.0764887 -0.136119E-09  0.512E-05    3.65     383.0  T
   8    -32.0764887 -0.621014E-11  0.188E-05    3.65    1044.9  T
   9    -32.0764887 -0.720490E-11  0.774E-06    3.65    2535.4  T
  10    -32.0764887 -0.213163E-12  0.160E-06    3.65   12263.2  T
     SCC iter.                  ...        0 min,  0.076 sec
     gradient                   ...        0 min,  0.002 sec
 * total energy  :   -31.5554799 Eh     change       -0.1610089E-04 Eh
   gradient norm :     0.0006745 Eh/α   predicted    -0.6421848E-05 ( -60.11%)
   displ. norm   :     0.0630960 α      lambda       -0.1012810E-04
   maximum displ.:     0.0563540 α      in ANC's #2, #1, #10, ...

........................................................................
.............................. CYCLE   14 ..............................
........................................................................

 iter      E             dE          RMSdq      gap      omega  full diag
   1    -32.0768507 -0.320769E+02  0.295E-02    3.65       0.0  T
   2    -32.0768507 -0.387656E-07  0.173E-02    3.65       1.1  T
   3    -32.0768507  0.135081E-07  0.132E-03    3.65      14.8  T
   4    -32.0768507 -0.240089E-07  0.424E-04    3.65      46.2  T
   5    -32.0768507 -0.174620E-08  0.192E-04    3.65     102.1  T
   6    -32.0768507 -0.257479E-09  0.782E-05    3.65     250.7  T
   7    -32.0768507 -0.115818E-11  0.223E-05    3.65     880.2  T
   8    -32.0768507 -0.898837E-11  0.837E-06    3.65    2343.3  T
   9    -32.0768507 -0.760281E-12  0.277E-06    3.65    7077.9  T
     SCC iter.                  ...        0 min,  0.075 sec
     gradient                   ...        0 min,  0.002 sec
 * total energy  :   -31.5554937 Eh     change       -0.1379828E-04 Eh
   gradient norm :     0.0005500 Eh/α   predicted    -0.5073553E-05 ( -63.23%)
   displ. norm   :     0.0663291 α      lambda       -0.1048037E-04
   maximum displ.:     0.0580078 α      in ANC's #2, #1, #3, ...

........................................................................
.............................. CYCLE   15 ..............................
........................................................................

 iter      E             dE          RMSdq      gap      omega  full diag
   1    -32.0769465 -0.320769E+02  0.312E-02    3.65       0.0  T
   2    -32.0769465 -0.354003E-07  0.183E-02    3.65       1.1  T
   3    -32.0769465  0.856076E-08  0.123E-03    3.65      16.0  T
   4    -32.0769465 -0.196305E-07  0.413E-04    3.65      47.5  T
   5    -32.0769465 -0.139759E-08  0.191E-04    3.65     102.8  T
   6    -32.0769465 -0.243460E-09  0.833E-05    3.65     235.4  T
   7    -32.0769465 -0.340350E-11  0.196E-05    3.65     998.4  T
   8    -32.0769465 -0.876810E-11  0.661E-06    3.65    2964.8  T
   9    -32.0769465 -0.426326E-12  0.271E-06    3.65    7244.2  T
     SCC iter.                  ...        0 min,  0.075 sec
     gradient                   ...        0 min,  0.002 sec
 * total energy  :   -31.5555081 Eh     change       -0.1442094E-04 Eh
   gradient norm :     0.0005262 Eh/α   predicted    -0.5252080E-05 ( -63.58%)
   displ. norm   :     0.0857596 α      lambda       -0.1224886E-04
   maximum displ.:     0.0713860 α      in ANC's #2, #1, #3, ...

........................................................................
.............................. CYCLE   16 ..............................
........................................................................

 iter      E             dE          RMSdq      gap      omega  full diag
   1    -32.0768551 -0.320769E+02  0.402E-02    3.65       0.0  T
   2    -32.0768551 -0.752754E-07  0.235E-02    3.65       1.0  T
   3    -32.0768551  0.179652E-07  0.164E-03    3.65      11.9  T
   4    -32.0768551 -0.328148E-07  0.685E-04    3.65      28.6  T
   5    -32.0768551 -0.553838E-08  0.235E-04    3.65      83.6  T
   6    -32.0768552 -0.362050E-09  0.106E-04    3.65     184.2  T
   7    -32.0768552 -0.216360E-10  0.317E-05    3.65     618.0  T
   8    -32.0768552 -0.969180E-11  0.117E-05    3.65    1679.3  T
   9    -32.0768552 -0.222400E-11  0.348E-06    3.65    5638.3  T
  10    -32.0768552 -0.639488E-13  0.143E-06    3.65   13668.9  T
     SCC iter.                  ...        0 min,  0.076 sec
     gradient                   ...        0 min,  0.002 sec
 * total energy  :   -31.5555243 Eh     change       -0.1620076E-04 Eh
   gradient norm :     0.0005084 Eh/α   predicted    -0.6146874E-05 ( -62.06%)
   displ. norm   :     0.1126411 α      lambda       -0.1338652E-04
   maximum displ.:     0.0905249 α      in ANC's #2, #1, #3, ...

........................................................................
.............................. CYCLE   17 ..............................
........................................................................

 iter      E             dE          RMSdq      gap      omega  full diag
   1    -32.0764890 -0.320765E+02  0.525E-02    3.65       0.0  T
   2    -32.0764891 -0.131288E-06  0.307E-02    3.65       1.0  T
   3    -32.0764891  0.265210E-07  0.225E-03    3.65       8.7  T
   4    -32.0764892 -0.571670E-07  0.883E-04    3.65      22.2  T
   5    -32.0764892 -0.793776E-08  0.334E-04    3.65      58.8  T
   6    -32.0764892 -0.839904E-09  0.159E-04    3.65     123.1  T
   7    -32.0764892 -0.593730E-10  0.385E-05    3.65     509.2  T
   8    -32.0764892 -0.137135E-10  0.145E-05    3.65    1349.4  T
   9    -32.0764892 -0.407852E-11  0.486E-06    3.65    4036.6  T
  10    -32.0764892 -0.781597E-13  0.173E-06    3.65   11327.8  T
     SCC iter.                  ...        0 min,  0.076 sec
     gradient                   ...        0 min,  0.002 sec
 * total energy  :   -31.5555412 Eh     change       -0.1688423E-04 Eh
   gradient norm :     0.0005760 Eh/α   predicted    -0.6735501E-05 ( -60.11%)
   displ. norm   :     0.1478388 α      lambda       -0.1366720E-04
   maximum displ.:     0.1148873 α      in ANC's #2, #1, #4, ...

........................................................................
.............................. CYCLE   18 ..............................
........................................................................

 iter      E             dE          RMSdq      gap      omega  full diag
   1    -32.0762772 -0.320763E+02  0.685E-02    3.64       0.0  T
   2    -32.0762774 -0.220017E-06  0.401E-02    3.65       1.0  T
   3    -32.0762774  0.472068E-07  0.304E-03    3.65       6.5  T
   4    -32.0762775 -0.964370E-07  0.109E-03    3.65      18.0  T
   5    -32.0762775 -0.116740E-07  0.422E-04    3.65      46.5  T
   6    -32.0762775 -0.169815E-08  0.199E-04    3.65      98.7  T
   7    -32.0762775 -0.735696E-10  0.450E-05    3.65     435.8  T
   8    -32.0762775 -0.270788E-10  0.184E-05    3.65    1064.7  T
   9    -32.0762775 -0.520117E-11  0.683E-06    3.65    2869.6  T
  10    -32.0762775  0.142109E-13  0.259E-06    3.65    7585.3  T
     SCC iter.                  ...        0 min,  0.076 sec
     gradient                   ...        0 min,  0.002 sec
 * total energy  :   -31.5555582 Eh     change       -0.1704712E-04 Eh
   gradient norm :     0.0007186 Eh/α   predicted    -0.6905563E-05 ( -59.49%)
   displ. norm   :     0.2496910 α      lambda       -0.1823036E-04
   maximum displ.:     0.1878144 α      in ANC's #2, #1, #4, ...

........................................................................
.............................. CYCLE   19 ..............................
........................................................................

 iter      E             dE          RMSdq      gap      omega  full diag
   1    -32.0756987 -0.320757E+02  0.114E-01    3.64       0.0  T
   2    -32.0756994 -0.670826E-06  0.667E-02    3.64       1.0  T
   3    -32.0756993  0.134394E-06  0.520E-03    3.64       3.8  T
   4    -32.0756995 -0.274394E-06  0.199E-03    3.64       9.9  T
   5    -32.0756996 -0.434137E-07  0.730E-04    3.64      26.9  T
   6    -32.0756996 -0.559811E-08  0.330E-04    3.64      59.4  T
   7    -32.0756996 -0.195172E-09  0.697E-05    3.64     281.4  T
   8    -32.0756996 -0.635580E-10  0.315E-05    3.64     622.0  T
   9    -32.0756996 -0.144667E-10  0.107E-05    3.64    1834.4  T
  10    -32.0756996 -0.170530E-12  0.390E-06    3.64    5023.9  T
  11    -32.0756996 -0.994760E-13  0.169E-06    3.64   11581.8  T
     SCC iter.                  ...        0 min,  0.076 sec
     gradient                   ...        0 min,  0.002 sec
 * total energy  :   -31.5555786 Eh     change       -0.2040023E-04 Eh
   gradient norm :     0.0013078 Eh/α   predicted    -0.9368978E-05 ( -54.07%)
   displ. norm   :     0.3266915 α      lambda       -0.1901500E-04
   maximum displ.:     0.2371582 α      in ANC's #2, #1, #4, ...

........................................................................
.............................. CYCLE   20 ..............................
........................................................................

 iter      E             dE          RMSdq      gap      omega  full diag
   1    -32.0749955 -0.320750E+02  0.147E-01    3.63       0.0  T
   2    -32.0749966 -0.105692E-05  0.860E-02    3.64       1.0  T
   3    -32.0749964  0.195756E-06  0.706E-03    3.64       2.8  T
   4    -32.0749968 -0.454392E-06  0.224E-03    3.64       8.7  T
   5    -32.0749969 -0.377751E-07  0.975E-04    3.64      20.1  T
   6    -32.0749969 -0.105759E-07  0.439E-04    3.64      44.6  T
   7    -32.0749969 -0.361737E-09  0.896E-05    3.64     218.9  T
   8    -32.0749969 -0.107640E-09  0.413E-05    3.64     474.7  T
   9    -32.0749969 -0.241727E-10  0.163E-05    3.64    1200.8  T
  10    -32.0749969 -0.369482E-12  0.514E-06    3.64    3812.2  T
  11    -32.0749969 -0.852651E-13  0.205E-06    3.64    9569.0  T
     SCC iter.                  ...        0 min,  0.076 sec
     gradient                   ...        0 min,  0.002 sec
 * total energy  :   -31.5555959 Eh     change       -0.1732864E-04 Eh
   gradient norm :     0.0021167 Eh/α   predicted    -0.9960585E-05 ( -42.52%)
   displ. norm   :     0.1187009 α      lambda       -0.1713582E-04
   maximum displ.:     0.0790784 α      in ANC's #2, #1, #4, ...
 * RMSD in coord.:     0.4745877 α      energy gain  -0.1261337E-02 Eh

generating ANC from model Hessian ...
Using Lindh-Hessian (1995)
 Shifting diagonal of input Hessian by   9.144016736472258E-003
 Lowest  eigenvalues of input Hessian
    0.000000    0.000000    0.000000    0.000000    0.000000    0.000000
    0.010000    0.010108    0.010604    0.011261    0.012187    0.012411
    0.015022    0.017067    0.018402    0.019274    0.024181    0.024818
 Highest eigenvalues
    1.362438    1.549630    1.575878    1.880602    1.985670    2.003383
 

........................................................................
.............................. CYCLE   21 ..............................
........................................................................

 iter      E             dE          RMSdq      gap      omega  full diag
   1    -32.0756591 -0.320757E+02  0.511E-02    3.64       0.0  T
   2    -32.0756592 -0.132930E-06  0.299E-02    3.64       1.0  T
   3    -32.0756592  0.417836E-07  0.253E-03    3.64       7.7  T
   4    -32.0756592 -0.745338E-07  0.834E-04    3.64      23.5  T
   5    -32.0756592 -0.694009E-08  0.330E-04    3.64      59.5  T
   6    -32.0756592 -0.111607E-08  0.158E-04    3.64     124.0  T
   7    -32.0756592 -0.484448E-10  0.345E-05    3.64     569.2  T
   8    -32.0756592 -0.243290E-10  0.121E-05    3.64    1617.9  T
   9    -32.0756592 -0.143530E-11  0.524E-06    3.64    3746.2  T
  10    -32.0756592 -0.142109E-13  0.195E-06    3.64   10066.3  T
     SCC iter.                  ...        0 min,  0.076 sec
     gradient                   ...        0 min,  0.002 sec
 * total energy  :   -31.5556101 Eh     change       -0.1415576E-04 Eh
   gradient norm :     0.0014511 Eh/α   predicted     0.0000000E+00 (-100.00%)
   displ. norm   :     0.0288194 α      lambda       -0.1037380E-04
   maximum displ.:     0.0146730 α      in ANC's #6, #5, #1, ...

........................................................................
.............................. CYCLE   22 ..............................
........................................................................

 iter      E             dE          RMSdq      gap      omega  full diag
   1    -32.0771855 -0.320772E+02  0.113E-02    3.65       0.0  T
   2    -32.0771855 -0.580615E-07  0.655E-03    3.65       3.0  T
   3    -32.0771855  0.149710E-07  0.163E-03    3.65      12.0  T
   4    -32.0771856 -0.242064E-07  0.344E-04    3.65      57.1  T
   5    -32.0771856 -0.489557E-09  0.207E-04    3.65      94.6  T
   6    -32.0771856 -0.373461E-10  0.844E-05    3.65     232.3  T
   7    -32.0771856 -0.903597E-10  0.205E-05    3.65     958.6  T
   8    -32.0771856 -0.596856E-12  0.943E-06    3.65    2080.3  T
   9    -32.0771856 -0.102318E-11  0.306E-06    3.65    6399.9  T
     SCC iter.                  ...        0 min,  0.075 sec
     gradient                   ...        0 min,  0.002 sec
 * total energy  :   -31.5556192 Eh     change       -0.9057170E-05 Eh
   gradient norm :     0.0004373 Eh/α   predicted    -0.5224196E-05 ( -42.32%)
   displ. norm   :     0.0375549 α      lambda       -0.4688596E-05
   maximum displ.:     0.0178568 α      in ANC's #6, #1, #3, ...

........................................................................
.............................. CYCLE   23 ..............................
........................................................................

 iter      E             dE          RMSdq      gap      omega  full diag
   1    -32.0773689 -0.320774E+02  0.108E-02    3.65       0.0  T
   2    -32.0773689 -0.179904E-07  0.626E-03    3.65       3.1  T
   3    -32.0773689  0.939451E-09  0.728E-04    3.65      26.9  T
   4    -32.0773689 -0.622535E-09  0.392E-04    3.65      50.1  T
   5    -32.0773689 -0.402417E-08  0.906E-05    3.65     216.4  T
   6    -32.0773689 -0.345253E-10  0.540E-05    3.65     363.4  T
   7    -32.0773689 -0.534328E-11  0.128E-05    3.65    1533.4  T
   8    -32.0773689 -0.212452E-11  0.374E-06    3.65    5248.4  T
   9    -32.0773689 -0.163425E-12  0.175E-06    3.65   11192.5  T
     SCC iter.                  ...        0 min,  0.075 sec
     gradient                   ...        0 min,  0.002 sec
 * total energy  :   -31.5556248 Eh     change       -0.5657631E-05 Eh
   gradient norm :     0.0005743 Eh/α   predicted    -0.2350046E-05 ( -58.46%)
   displ. norm   :     0.0872210 α      lambda       -0.8457598E-05
   maximum displ.:     0.0435001 α      in ANC's #1, #5, #3, ...

........................................................................
.............................. CYCLE   24 ..............................
........................................................................

 iter      E             dE          RMSdq      gap      omega  full diag
   1    -32.0769289 -0.320769E+02  0.223E-02    3.65       0.0  T
   2    -32.0769289 -0.413583E-07  0.131E-02    3.65       1.5  T
   3    -32.0769289 -0.337163E-08  0.112E-03    3.65      17.4  T
   4    -32.0769289 -0.781507E-08  0.483E-04    3.65      40.6  T
   5    -32.0769290 -0.825430E-09  0.193E-04    3.65     101.8  T
   6    -32.0769290 -0.559815E-09  0.718E-05    3.65     273.0  T
   7    -32.0769290 -0.339995E-10  0.260E-05    3.65     754.9  T
   8    -32.0769290 -0.358824E-11  0.811E-06    3.65    2418.3  T
   9    -32.0769290 -0.319744E-12  0.406E-06    3.65    4834.6  T
     SCC iter.                  ...        0 min,  0.075 sec
     gradient                   ...        0 min,  0.002 sec
 * total energy  :   -31.5556323 Eh     change       -0.7461988E-05 Eh
   gradient norm :     0.0005781 Eh/α   predicted    -0.4243488E-05 ( -43.13%)
   displ. norm   :     0.0438346 α      lambda       -0.3087363E-05
   maximum displ.:     0.0276609 α      in ANC's #1, #9, #5, ...

........................................................................
.............................. CYCLE   25 ..............................
........................................................................

 iter      E             dE          RMSdq      gap      omega  full diag
   1    -32.0767918 -0.320768E+02  0.147E-02    3.65       0.0  T
   2    -32.0767918 -0.478548E-07  0.826E-03    3.65       2.4  T
   3    -32.0767918 -0.284506E-08  0.122E-03    3.65      16.1  T
   4    -32.0767918  0.497224E-09  0.437E-04    3.65      44.9  T
   5    -32.0767918 -0.416158E-08  0.970E-05    3.65     202.3  T
   6    -32.0767918 -0.126100E-09  0.496E-05    3.65     395.3  T
   7    -32.0767918 -0.167191E-10  0.188E-05    3.65    1042.4  T
   8    -32.0767918 -0.199663E-11  0.650E-06    3.65    3017.9  T
   9    -32.0767918 -0.163425E-12  0.226E-06    3.65    8671.6  T
     SCC iter.                  ...        0 min,  0.075 sec
     gradient                   ...        0 min,  0.002 sec
 * total energy  :   -31.5556349 Eh     change       -0.2651055E-05 Eh
   gradient norm :     0.0004418 Eh/α   predicted    -0.1545956E-05 ( -41.69%)
   displ. norm   :     0.0268363 α      lambda       -0.1944884E-05
   maximum displ.:     0.0190632 α      in ANC's #1, #4, #9, ...

........................................................................
.............................. CYCLE   26 ..............................
........................................................................

 iter      E             dE          RMSdq      gap      omega  full diag
   1    -32.0768033 -0.320768E+02  0.829E-03    3.65       0.0  T
   2    -32.0768033 -0.202094E-07  0.475E-03    3.65       4.1  T
   3    -32.0768033  0.225313E-08  0.103E-03    3.65      19.0  T
   4    -32.0768033 -0.494047E-08  0.379E-04    3.65      51.7  T
   5    -32.0768033 -0.530761E-09  0.132E-04    3.65     148.7  T
   6    -32.0768033 -0.348940E-09  0.430E-05    3.65     455.7  T
   7    -32.0768033 -0.172662E-11  0.131E-05    3.65    1496.4  T
   8    -32.0768033 -0.618172E-12  0.416E-06    3.65    4713.4  T
   9    -32.0768033 -0.191847E-12  0.148E-06    3.65   13279.4  T
     SCC iter.                  ...        0 min,  0.075 sec
     gradient                   ...        0 min,  0.002 sec
 * total energy  :   -31.5556372 Eh     change       -0.2239943E-05 Eh
   gradient norm :     0.0002514 Eh/α   predicted    -0.9811819E-06 ( -56.20%)
   displ. norm   :     0.0337570 α      lambda       -0.2054033E-05
   maximum displ.:     0.0236954 α      in ANC's #1, #4, #6, ...

........................................................................
.............................. CYCLE   27 ..............................
........................................................................

 iter      E             dE          RMSdq      gap      omega  full diag
   1    -32.0768597 -0.320769E+02  0.114E-02    3.65       0.0  T
   2    -32.0768597 -0.163302E-07  0.659E-03    3.65       3.0  T
   3    -32.0768597  0.394595E-08  0.762E-04    3.65      25.7  T
   4    -32.0768597 -0.470541E-08  0.392E-04    3.65      50.1  T
   5    -32.0768597 -0.248849E-08  0.955E-05    3.65     205.5  T
   6    -32.0768597 -0.514575E-10  0.437E-05    3.65     449.1  T
   7    -32.0768597 -0.305533E-12  0.174E-05    3.65    1127.2  T
   8    -32.0768597 -0.358824E-11  0.603E-06    3.65    3254.2  T
   9    -32.0768597 -0.355271E-12  0.202E-06    3.65    9713.9  T
     SCC iter.                  ...        0 min,  0.075 sec
     gradient                   ...        0 min,  0.002 sec
 * total energy  :   -31.5556394 Eh     change       -0.2220054E-05 Eh
   gradient norm :     0.0002741 Eh/α   predicted    -0.1028218E-05 ( -53.69%)
   displ. norm   :     0.0281473 α      lambda       -0.1160054E-05
   maximum displ.:     0.0208729 α      in ANC's #1, #4, #2, ...

........................................................................
.............................. CYCLE   28 ..............................
........................................................................

 iter      E             dE          RMSdq      gap      omega  full diag
   1    -32.0768978 -0.320769E+02  0.105E-02    3.65       0.0  T
   2    -32.0768978 -0.127172E-07  0.613E-03    3.65       3.2  T
   3    -32.0768978  0.753933E-08  0.853E-04    3.65      23.0  T
   4    -32.0768978 -0.845688E-08  0.346E-04    3.65      56.7  T
   5    -32.0768978 -0.197167E-08  0.102E-04    3.65     193.0  T
   6    -32.0768978 -0.127542E-09  0.393E-05    3.65     498.8  T
   7    -32.0768978 -0.395772E-11  0.124E-05    3.65    1586.9  T
   8    -32.0768978 -0.660805E-12  0.416E-06    3.65    4713.0  T
   9    -32.0768978 -0.241585E-12  0.177E-06    3.65   11099.5  T
     SCC iter.                  ...        0 min,  0.075 sec
     gradient                   ...        0 min,  0.002 sec
 * total energy  :   -31.5556407 Eh     change       -0.1363967E-05 Eh
   gradient norm :     0.0002053 Eh/α   predicted    -0.5828038E-06 ( -57.27%)
   displ. norm   :     0.0218623 α      lambda       -0.8848569E-06
   maximum displ.:     0.0166631 α      in ANC's #1, #2, #4, ...

........................................................................
.............................. CYCLE   29 ..............................
........................................................................

 iter      E             dE          RMSdq      gap      omega  full diag
   1    -32.0769276 -0.320769E+02  0.934E-03    3.65       0.0  T
   2    -32.0769276 -0.684049E-08  0.547E-03    3.65       3.6  T
   3    -32.0769276  0.187246E-08  0.525E-04    3.65      37.4  T
   4    -32.0769276 -0.304041E-08  0.176E-04    3.65     111.7  T
   5    -32.0769276 -0.300581E-09  0.790E-05    3.65     248.3  T
   6    -32.0769276 -0.798508E-10  0.355E-05    3.65     552.8  T
   7    -32.0769276 -0.767386E-12  0.934E-06    3.65    2100.1  T
   8    -32.0769276 -0.102318E-11  0.287E-06    3.65    6825.0  T
     SCC iter.                  ...        0 min,  0.075 sec
     gradient                   ...        0 min,  0.002 sec
 * total energy  :   -31.5556420 Eh     change       -0.1218485E-05 Eh
   gradient norm :     0.0001177 Eh/α   predicted    -0.4441390E-06 ( -63.55%)
   displ. norm   :     0.0262088 α      lambda       -0.1203399E-05
   maximum displ.:     0.0194381 α      in ANC's #1, #2, #4, ...

........................................................................
.............................. CYCLE   30 ..............................
........................................................................

 iter      E             dE          RMSdq      gap      omega  full diag
   1    -32.0769398 -0.320769E+02  0.116E-02    3.65       0.0  T
   2    -32.0769398 -0.641281E-08  0.681E-03    3.65       2.9  T
   3    -32.0769398  0.943309E-09  0.476E-04    3.65      41.2  T
   4    -32.0769398 -0.239693E-08  0.184E-04    3.65     106.8  T
   5    -32.0769398 -0.365134E-09  0.734E-05    3.65     267.1  T
   6    -32.0769398 -0.507185E-10  0.378E-05    3.65     518.6  T
   7    -32.0769398 -0.223821E-11  0.798E-06    3.65    2458.6  T
   8    -32.0769398 -0.909495E-12  0.286E-06    3.65    6846.6  T
     SCC iter.                  ...        0 min,  0.075 sec
     gradient                   ...        0 min,  0.002 sec
 * total energy  :   -31.5556437 Eh     change       -0.1717288E-05 Eh
   gradient norm :     0.0001678 Eh/α   predicted    -0.6038020E-06 ( -64.84%)
   displ. norm   :     0.0429670 α      lambda       -0.1965875E-05
   maximum displ.:     0.0309735 α      in ANC's #1, #2, #6, ...

........................................................................
.............................. CYCLE   31 ..............................
........................................................................

 iter      E             dE          RMSdq      gap      omega  full diag
   1    -32.0769416 -0.320769E+02  0.193E-02    3.65       0.0  T
   2    -32.0769416 -0.149107E-07  0.113E-02    3.65       1.7  T
   3    -32.0769416  0.121013E-08  0.783E-04    3.65      25.0  T
   4    -32.0769416 -0.545148E-08  0.253E-04    3.65      77.6  T
   5    -32.0769416 -0.413081E-09  0.117E-04    3.65     167.9  T
   6    -32.0769416 -0.137724E-09  0.587E-05    3.65     334.0  T
   7    -32.0769416 -0.706279E-11  0.988E-06    3.65    1985.7  T
   8    -32.0769416 -0.156319E-11  0.460E-06    3.65    4260.7  T
     SCC iter.                  ...        0 min,  0.075 sec
     gradient                   ...        0 min,  0.002 sec
 * total energy  :   -31.5556464 Eh     change       -0.2716960E-05 Eh
   gradient norm :     0.0002363 Eh/α   predicted    -0.9847058E-06 ( -63.76%)
   displ. norm   :     0.0654624 α      lambda       -0.2633818E-05
   maximum displ.:     0.0471445 α      in ANC's #1, #2, #6, ...

........................................................................
.............................. CYCLE   32 ..............................
........................................................................

 iter      E             dE          RMSdq      gap      omega  full diag
   1    -32.0768866 -0.320769E+02  0.294E-02    3.65       0.0  T
   2    -32.0768866 -0.401534E-07  0.172E-02    3.65       1.1  T
   3    -32.0768866  0.120544E-09  0.114E-03    3.65      17.2  T
   4    -32.0768866 -0.971538E-08  0.419E-04    3.65      46.8  T
   5    -32.0768866 -0.130034E-08  0.164E-04    3.65     119.6  T
   6    -32.0768866 -0.235623E-09  0.821E-05    3.65     238.9  T
   7    -32.0768866 -0.153975E-10  0.126E-05    3.65    1550.5  T
   8    -32.0768866 -0.173372E-11  0.697E-06    3.65    2812.0  T
   9    -32.0768866 -0.781597E-12  0.241E-06    3.65    8128.0  T
     SCC iter.                  ...        0 min,  0.075 sec
     gradient                   ...        0 min,  0.002 sec
 * total energy  :   -31.5556499 Eh     change       -0.3482313E-05 Eh
   gradient norm :     0.0002249 Eh/α   predicted    -0.1319925E-05 ( -62.10%)
   displ. norm   :     0.0737137 α      lambda       -0.2436890E-05
   maximum displ.:     0.0537991 α      in ANC's #1, #2, #4, ...

........................................................................
.............................. CYCLE   33 ..............................
........................................................................

 iter      E             dE          RMSdq      gap      omega  full diag
   1    -32.0768316 -0.320768E+02  0.333E-02    3.65       0.0  T
   2    -32.0768317 -0.472621E-07  0.195E-02    3.65       1.0  T
   3    -32.0768317  0.694367E-08  0.153E-03    3.65      12.8  T
   4    -32.0768317 -0.203334E-07  0.428E-04    3.65      45.9  T
   5    -32.0768317 -0.959979E-09  0.207E-04    3.65      94.9  T
   6    -32.0768317 -0.486310E-09  0.921E-05    3.65     213.0  T
   7    -32.0768317 -0.155538E-10  0.166E-05    3.65    1183.9  T
   8    -32.0768317 -0.399325E-11  0.801E-06    3.65    2448.7  T
   9    -32.0768317 -0.852651E-12  0.313E-06    3.65    6266.1  T
     SCC iter.                  ...        0 min,  0.075 sec
     gradient                   ...        0 min,  0.002 sec
 * total energy  :   -31.5556530 Eh     change       -0.3168385E-05 Eh
   gradient norm :     0.0002048 Eh/α   predicted    -0.1226104E-05 ( -61.30%)
   displ. norm   :     0.0627253 α      lambda       -0.1782379E-05
   maximum displ.:     0.0468161 α      in ANC's #1, #2, #4, ...

........................................................................
.............................. CYCLE   34 ..............................
........................................................................

 iter      E             dE          RMSdq      gap      omega  full diag
   1    -32.0768080 -0.320768E+02  0.278E-02    3.65       0.0  T
   2    -32.0768081 -0.447523E-07  0.163E-02    3.65       1.2  T
   3    -32.0768081  0.187291E-08  0.124E-03    3.65      15.8  T
   4    -32.0768081 -0.108105E-07  0.458E-04    3.65      42.9  T
   5    -32.0768081 -0.164290E-08  0.166E-04    3.65     118.2  T
   6    -32.0768081 -0.275477E-09  0.775E-05    3.65     253.0  T
   7    -32.0768081 -0.118092E-10  0.149E-05    3.65    1315.5  T
   8    -32.0768081 -0.153477E-11  0.776E-06    3.65    2527.4  T
   9    -32.0768081 -0.102318E-11  0.262E-06    3.65    7477.8  T
     SCC iter.                  ...        0 min,  0.075 sec
     gradient                   ...        0 min,  0.002 sec
 * total energy  :   -31.5556554 Eh     change       -0.2397514E-05 Eh
   gradient norm :     0.0001557 Eh/α   predicted    -0.8968452E-06 ( -62.59%)
   displ. norm   :     0.0476444 α      lambda       -0.1345164E-05
   maximum displ.:     0.0365463 α      in ANC's #1, #2, #4, ...

........................................................................
.............................. CYCLE   35 ..............................
........................................................................

 iter      E             dE          RMSdq      gap      omega  full diag
   1    -32.0768263 -0.320768E+02  0.203E-02    3.65       0.0  T
   2    -32.0768263 -0.211756E-07  0.119E-02    3.65       1.6  T
   3    -32.0768263  0.531724E-08  0.105E-03    3.65      18.6  T
   4    -32.0768263 -0.106642E-07  0.306E-04    3.65      64.0  T
   5    -32.0768263 -0.687400E-09  0.140E-04    3.65     140.2  T
   6    -32.0768263 -0.237215E-09  0.583E-05    3.65     336.3  T
   7    -32.0768263 -0.436273E-11  0.129E-05    3.65    1523.8  T
   8    -32.0768263 -0.246558E-11  0.591E-06    3.65    3321.2  T
   9    -32.0768263 -0.405009E-12  0.244E-06    3.65    8040.2  T
     SCC iter.                  ...        0 min,  0.075 sec
     gradient                   ...        0 min,  0.002 sec
 * total energy  :   -31.5556573 Eh     change       -0.1873410E-05 Eh
   gradient norm :     0.0001346 Eh/α   predicted    -0.6766793E-06 ( -63.88%)
   displ. norm   :     0.0388773 α      lambda       -0.1130021E-05
   maximum displ.:     0.0302220 α      in ANC's #1, #2, #4, ...

........................................................................
.............................. CYCLE   36 ..............................
........................................................................

 iter      E             dE          RMSdq      gap      omega  full diag
   1    -32.0768597 -0.320769E+02  0.153E-02    3.65       0.0  T
   2    -32.0768597 -0.145338E-07  0.895E-03    3.65       2.2  T
   3    -32.0768597  0.287736E-08  0.809E-04    3.65      24.3  T
   4    -32.0768597 -0.583056E-08  0.278E-04    3.65      70.6  T
   5    -32.0768597 -0.715310E-09  0.114E-04    3.65     171.7  T
   6    -32.0768597 -0.160242E-09  0.483E-05    3.65     405.7  T
   7    -32.0768597 -0.326850E-11  0.112E-05    3.65    1751.2  T
   8    -32.0768597 -0.164846E-11  0.495E-06    3.65    3964.6  T
   9    -32.0768597 -0.206057E-12  0.221E-06    3.65    8865.4  T
     SCC iter.                  ...        0 min,  0.075 sec
     gradient                   ...        0 min,  0.002 sec
 * total energy  :   -31.5556589 Eh     change       -0.1574185E-05 Eh
   gradient norm :     0.0001193 Eh/α   predicted    -0.5676967E-06 ( -63.94%)
   displ. norm   :     0.0332265 α      lambda       -0.9197629E-06
   maximum displ.:     0.0263066 α      in ANC's #1, #2, #4, ...

........................................................................
.............................. CYCLE   37 ..............................
........................................................................

 iter      E             dE          RMSdq      gap      omega  full diag
   1    -32.0768881 -0.320769E+02  0.124E-02    3.65       0.0  T
   2    -32.0768881 -0.100162E-07  0.728E-03    3.65       2.7  T
   3    -32.0768881  0.276430E-08  0.667E-04    3.65      29.4  T
   4    -32.0768881 -0.469176E-08  0.245E-04    3.65      80.0  T
   5    -32.0768881 -0.714330E-09  0.927E-05    3.65     211.5  T
   6    -32.0768881 -0.936495E-10  0.397E-05    3.65     494.1  T
   7    -32.0768881 -0.165556E-11  0.100E-05    3.65    1961.6  T
   8    -32.0768881 -0.143530E-11  0.407E-06    3.65    4815.2  T
     SCC iter.                  ...        0 min,  0.075 sec
     gradient                   ...        0 min,  0.002 sec
 * total energy  :   -31.5556602 Eh     change       -0.1261099E-05 Eh
   gradient norm :     0.0000905 Eh/α   predicted    -0.4625555E-06 ( -63.32%)
   displ. norm   :     0.0245418 α      lambda       -0.6191084E-06
   maximum displ.:     0.0200918 α      in ANC's #1, #4, #2, ...

........................................................................
.............................. CYCLE   38 ..............................
........................................................................

 iter      E             dE          RMSdq      gap      omega  full diag
   1    -32.0769172 -0.320769E+02  0.885E-03    3.65       0.0  T
   2    -32.0769172 -0.501834E-08  0.520E-03    3.65       3.8  T
   3    -32.0769172  0.258571E-08  0.556E-04    3.65      35.2  T
   4    -32.0769172 -0.375825E-08  0.173E-04    3.65     113.5  T
   5    -32.0769172 -0.326239E-09  0.772E-05    3.65     253.9  T
   6    -32.0769172 -0.749409E-10  0.323E-05    3.65     606.5  T
   7    -32.0769172 -0.180478E-11  0.691E-06    3.65    2836.4  T
   8    -32.0769172 -0.532907E-12  0.286E-06    3.65    6866.3  T
     SCC iter.                  ...        0 min,  0.074 sec
     gradient                   ...        0 min,  0.002 sec
 * total energy  :   -31.5556610 Eh     change       -0.8503648E-06 Eh
   gradient norm :     0.0000705 Eh/α   predicted    -0.3107030E-06 ( -63.46%)
   displ. norm   :     0.0157463 α      lambda       -0.3865808E-06
   maximum displ.:     0.0136900 α      in ANC's #1, #4, #2, ...

........................................................................
.............................. CYCLE   39 ..............................
........................................................................

 iter      E             dE          RMSdq      gap      omega  full diag
   1    -32.0769319 -0.320769E+02  0.563E-03    3.65       0.0  T
   2    -32.0769319 -0.211305E-08  0.330E-03    3.65       6.0  T
   3    -32.0769319  0.913460E-09  0.317E-04    3.65      61.8  T
   4    -32.0769319 -0.129467E-08  0.125E-04    3.65     156.5  T
   5    -32.0769319 -0.236881E-09  0.400E-05    3.65     490.9  T
   6    -32.0769319 -0.132943E-10  0.188E-05    3.65    1045.4  T
   7    -32.0769319 -0.412115E-12  0.465E-06    3.65    4219.2  T
   8    -32.0769319 -0.319744E-12  0.185E-06    3.65   10614.7  T
     SCC iter.                  ...        0 min,  0.075 sec
     gradient                   ...        0 min,  0.002 sec
 * total energy  :   -31.5556616 Eh     change       -0.5477109E-06 Eh
   gradient norm :     0.0000560 Eh/α   predicted    -0.1939104E-06 ( -64.60%)
   displ. norm   :     0.0101351 α      lambda       -0.2654451E-06
   maximum displ.:     0.0094255 α      in ANC's #1, #4, #5, ...

........................................................................
.............................. CYCLE   40 ..............................
........................................................................

 iter      E             dE          RMSdq      gap      omega  full diag
   1    -32.0769381 -0.320769E+02  0.354E-03    3.65       0.0  T
   2    -32.0769381 -0.752209E-09  0.208E-03    3.65       9.4  T
   3    -32.0769381  0.804675E-09  0.242E-04    3.65      81.1  T
   4    -32.0769381 -0.103859E-08  0.694E-05    3.65     282.7  T
   5    -32.0769381 -0.646239E-10  0.252E-05    3.65     779.2  T
   6    -32.0769381 -0.554934E-11  0.128E-05    3.65    1534.6  T
   7    -32.0769381 -0.198952E-12  0.213E-06    3.65    9224.3  T
   8    -32.0769381 -0.106581E-12  0.903E-07    3.65   21725.6  T
     SCC iter.                  ...        0 min,  0.074 sec
     gradient                   ...        0 min,  0.002 sec
 * total energy  :   -31.5556619 Eh     change       -0.3876046E-06 Eh
   gradient norm :     0.0000569 Eh/α   predicted    -0.1331494E-06 ( -65.65%)
   displ. norm   :     0.0080275 α      lambda       -0.2217434E-06
   maximum displ.:     0.0076585 α      in ANC's #1, #4, #6, ...

........................................................................
.............................. CYCLE   41 ..............................
........................................................................

 iter      E             dE          RMSdq      gap      omega  full diag
   1    -32.0769327 -0.320769E+02  0.266E-03    3.65       0.0  T
   2    -32.0769327 -0.418794E-09  0.156E-03    3.65      12.6  T
   3    -32.0769327  0.525588E-09  0.188E-04    3.65     104.3  T
   4    -32.0769327 -0.676337E-09  0.518E-05    3.65     378.9  T
   5    -32.0769327 -0.290257E-10  0.181E-05    3.65    1083.6  T
   6    -32.0769327 -0.188294E-11  0.102E-05    3.65    1917.0  T
   7    -32.0769327 -0.326850E-12  0.179E-06    3.65   10935.8  T
   8    -32.0769327  0.213163E-13  0.767E-07    3.65   25558.6  T
     SCC iter.                  ...        0 min,  0.074 sec
     gradient                   ...        0 min,  0.002 sec
 * total energy  :   -31.5556623 Eh     change       -0.3360263E-06 Eh
   gradient norm :     0.0000525 Eh/α   predicted    -0.1144260E-06 ( -65.95%)
   displ. norm   :     0.0081279 α      lambda       -0.2313673E-06
   maximum displ.:     0.0074884 α      in ANC's #1, #3, #6, ...

........................................................................
.............................. CYCLE   42 ..............................
........................................................................

 iter      E             dE          RMSdq      gap      omega  full diag
   1    -32.0769319 -0.320769E+02  0.248E-03    3.65       0.0  T
   2    -32.0769319 -0.404356E-09  0.145E-03    3.65      13.5  T
   3    -32.0769319  0.899178E-09  0.226E-04    3.65      86.9  T
   4    -32.0769319 -0.110943E-08  0.440E-05    3.65     445.7  T
   5    -32.0769319 -0.704858E-11  0.169E-05    3.65    1158.5  T
   6    -32.0769319 -0.206057E-11  0.941E-06    3.65    2085.1  T
   7    -32.0769319 -0.206057E-12  0.184E-06    3.65   10647.4  T
     SCC iter.                  ...        0 min,  0.073 sec
     gradient                   ...        0 min,  0.002 sec
 * total energy  :   -31.5556626 Eh     change       -0.3387593E-06 Eh
   gradient norm :     0.0000533 Eh/α   predicted    -0.1172077E-06 ( -65.40%)
   displ. norm   :     0.0094237 α      lambda       -0.2510199E-06
   maximum displ.:     0.0082575 α      in ANC's #1, #3, #2, ...
 * RMSD in coord.:     0.1272581 α      energy gain  -0.6667767E-04 Eh

generating ANC from model Hessian ...
Using Lindh-Hessian (1995)
 Shifting diagonal of input Hessian by   9.126338243807472E-003
 Lowest  eigenvalues of input Hessian
    0.000000    0.000000    0.000000    0.000000    0.000000    0.000000
    0.010000    0.010070    0.010610    0.011254    0.012150    0.012437
    0.015022    0.017075    0.018437    0.019336    0.024235    0.024870
 Highest eigenvalues
    1.364360    1.551699    1.577436    1.882196    1.987976    2.005739
 

........................................................................
.............................. CYCLE   43 ..............................
........................................................................

 iter      E             dE          RMSdq      gap      omega  full diag
   1    -32.0769287 -0.320769E+02  0.270E-03    3.65       0.0  T
   2    -32.0769287 -0.405066E-09  0.158E-03    3.65      12.4  T
   3    -32.0769287  0.100535E-08  0.226E-04    3.65      86.8  T
   4    -32.0769287 -0.124506E-08  0.447E-05    3.65     438.4  T
   5    -32.0769287 -0.473221E-11  0.172E-05    3.65    1138.1  T
   6    -32.0769287 -0.490274E-12  0.896E-06    3.65    2189.3  T
   7    -32.0769287 -0.348166E-12  0.196E-06    3.65    9998.8  T
     SCC iter.                  ...        0 min,  0.073 sec
     gradient                   ...        0 min,  0.002 sec
 * total energy  :   -31.5556630 Eh     change       -0.3578187E-06 Eh
   gradient norm :     0.0000478 Eh/α   predicted     0.0000000E+00 (-100.00%)
   displ. norm   :     0.0000716 α      lambda        0.0000000E+00
   maximum displ.:     0.0000512 α      in ANC's #1, #2, #48, ...

........................................................................
.............................. CYCLE   44 ..............................
........................................................................

 iter      E             dE          RMSdq      gap      omega  full diag
   1    -32.0769257 -0.320769E+02  0.680E-05    3.65       0.0  T
   2    -32.0769257 -0.103455E-10  0.398E-05    3.65     492.3  T
   3    -32.0769257 -0.277112E-12  0.177E-05    3.65    1111.0  T
   4    -32.0769257 -0.108713E-11  0.691E-06    3.65    2836.8  T
   5    -32.0769257 -0.206057E-12  0.308E-06    3.65    6368.3  T
     SCC iter.                  ...        0 min,  0.073 sec
     gradient                   ...        0 min,  0.002 sec
 * total energy  :   -31.5556630 Eh     change       -0.2987804E-08 Eh
   gradient norm :     0.0000412 Eh/α   predicted    -0.1995988E-08 ( -33.20%)
   displ. norm   :     0.0000716 α      lambda        0.0000000E+00
   maximum displ.:     0.0000512 α      in ANC's #1, #2, #48, ...

   *** GEOMETRY OPTIMIZATION CONVERGED AFTER 44 ITERATIONS ***

------------------------------------------------------------------------
 total energy gain   :        -0.0013284 Eh       -0.8336 kcal/mol
 total RMSD          :         0.5925499 a0        0.3136 Å
 total power (kW/mol):        -0.0792647 (step)   -1.0057 (real)
------------------------------------------------------------------------

 ANCopt (total)                0 d,  0 h,  0 min,  3.468 sec
 optimizer setup                ...        0 min,  0.001 sec (  0.022%)
 model hessian                  ...        0 min,  0.023 sec (  0.654%)
 ANC generation                 ...        0 min,  0.001 sec (  0.033%)
 coordinate transformation      ...        0 min,  0.000 sec (  0.012%)
 single point calculation       ...        0 min,  3.429 sec ( 98.871%)
 optimization log               ...        0 min,  0.003 sec (  0.080%)
 hessian update                 ...        0 min,  0.001 sec (  0.018%)
 rational function              ...        0 min,  0.003 sec (  0.092%)

================
 final structure:
================
26
 xtb: 6.7.0 (08769fc)
P            1.63431888414809       -0.42802357692650       -3.00537889269416
C            3.13592420735676       -0.97518078012218       -2.04766936467649
H            3.90791071915972       -0.22334354870720       -2.23810432203866
H            2.93489207791250       -0.98985144499771       -0.97440374528092
C            3.62162202342209       -2.33688197477448       -2.53088158152298
H            3.87128193111805       -2.29275140616216       -3.58899292377017
H            2.85062093824596       -3.09424403441962       -2.40201441358368
H            4.50793767853388       -2.64774317748382       -1.97939540505694
C            0.24934455640388       -1.19189916675051       -2.07220793349703
C           -1.02693039463444       -0.84185434617231       -2.50955798717202
C            0.37142020115356       -2.10927089573347       -1.03651499039367
C           -2.15289562214351       -1.36317278320289       -1.90360589483761
C           -0.75781339981289       -2.63622113099460       -0.43263720664269
C           -2.02028467894161       -2.26255527157224       -0.85776232752615
H           -1.12692874186381       -0.15155231549709       -3.33686093338491
H            1.34333041619348       -2.42180103096027       -0.68637949727249
H           -3.13542462620505       -1.07496951542765       -2.24896394292683
H           -0.64837679307480       -3.34445392986844        0.37664137956315
H           -2.89757820951618       -2.67552435722844       -0.38171024732580
C            1.46313099666055        1.31003512301157       -2.33806944111662
H            2.29372282491616        1.88422038499431       -2.75904378444845
H            0.54210512580450        1.70855013010494       -2.77288255691494
C            1.42535596909346        1.46229228115566       -0.82372879620686
H            2.37953094786911        1.19618175949902       -0.37593865569229
H            0.64990239407476        0.83181273789152       -0.39205818967866
H            1.20909557412552        2.49733327034432       -0.56297734590171
 
 Bond Distances (Angstroems)
 ---------------------------
P1-C2=1.8632         P1-C9=1.8364         P1-C20=1.8696        C2-P1=1.8632         C2-H3=1.0943         C2-H4=1.0920         
C2-C5=1.5243         H3-C2=1.0943         H4-C2=1.0920         C5-C2=1.5243         C5-H6=1.0881         C5-H7=1.0884         
C5-H8=1.0892         H6-C5=1.0881         H7-C5=1.0884         H8-C5=1.0892         C9-P1=1.8364         C9-C10=1.3938        
C9-C11=1.3889        C10-C9=1.3938        C10-C12=1.3809       C10-H15=1.0821       C11-C9=1.3889        C11-C13=1.3847       
C11-H16=1.0793       C12-C10=1.3809       C12-C14=1.3857       C12-H17=1.0806       C13-C11=1.3847       C13-C14=1.3835       
C13-H18=1.0810       C14-C12=1.3857       C14-C13=1.3835       C14-H19=1.0802       H15-C10=1.0821       H16-C11=1.0793       
H17-C12=1.0806       H18-C13=1.0810       H19-C14=1.0802       C20-P1=1.8696        C20-H21=1.0940       C20-H22=1.0937       
C20-C23=1.5224       H21-C20=1.0940       H22-C20=1.0937       C23-C20=1.5224       C23-H24=1.0871       C23-H25=1.0887       
C23-H26=1.0891       H24-C23=1.0871       H25-C23=1.0887       H26-C23=1.0891       
 C  H  Rav=1.0872 sigma=0.0051  Rmin=1.0793  Rmax=1.0943    15
 C  C  Rav=1.4205 sigma=0.0595  Rmin=1.3809  Rmax=1.5243     8
 P  C  Rav=1.8564 sigma=0.0144  Rmin=1.8364  Rmax=1.8696     3
 
 selected bond angles (degree)
 --------------------
C9-P1-C2=102.97                C20-P1-C2= 99.40               C20-P1-C9= 97.83               H3-C2-P1=106.10                
H4-C2-P1=111.15                H4-C2-H3=108.07                C5-C2-P1=110.87                C5-C2-H3=109.50                
C5-C2-H4=110.99                H6-C5-C2=110.19                H7-C5-C2=111.00                H7-C5-H6=107.81                
H8-C5-C2=110.72                H8-C5-H6=108.50                H8-C5-H7=108.54                C10-C9-P1=115.26               
C11-C9-P1=125.97               C11-C9-C10=118.71              C12-C10-C9=120.94              H15-C10-C9=118.99              
H15-C10-C12=120.06             
 
 selected dihedral angles (degree)
 ---------------------------------
H3-C2-P1-C9=205.65            H3-C2-P1-C20=306.01           H4-C2-P1-C9=322.89            H4-C2-P1-C20= 63.25           
C5-C2-P1-C9= 86.84            C5-C2-P1-C20=187.21           H6-C5-C2-P1= 59.14            H6-C5-C2-H3=302.41            
H6-C5-C2-H4=183.18            H7-C5-C2-P1=299.79            H7-C5-C2-H3=183.05            H7-C5-C2-H4= 63.83            
H8-C5-C2-P1=179.17            H8-C5-C2-H3= 62.44            H8-C5-C2-H4=303.22            C10-C9-P1-C2=174.49           
C10-C9-P1-C20= 72.90          C11-C9-P1-C2=351.46           C11-C9-P1-C20=249.87          C12-C10-C9-P1=179.09          
C12-C10-C9-C11=  1.88         H15-C10-C9-P1=359.13          H15-C10-C9-C11=181.92         
           -------------------------------------------------
          |                Final Singlepoint                |
           -------------------------------------------------

          ...................................................
          :                      SETUP                      :
          :.................................................:
          :  # basis functions                  65          :
          :  # atomic orbitals                  64          :
          :  # shells                           38          :
          :  # electrons                        60          :
          :  max. iterations                  5000          :
          :  Hamiltonian                  GFN2-xTB          :
          :  restarted?                      false          :
          :  GBSA solvation                  false          :
          :  PC potential                    false          :
          :  electronic temp.          300.0000000     K    :
          :  accuracy                    0.0100000          :
          :  -> integral cutoff          0.4500000E+02      :
          :  -> integral neglect         0.1000000E-09      :
          :  -> SCF convergence          0.1000000E-07 Eh   :
          :  -> wf. convergence          0.1000000E-05 e    :
          :  Broyden damping             0.4000000          :
          :  net charge                          0          :
[...]
         :: add. restraining           0.000000000000 Eh    ::
         :: total charge              -0.000000000000 e     ::
         :::::::::::::::::::::::::::::::::::::::::::::::::::::

           ------------------------------------------------- 
          |                Numerical Hessian                |
           ------------------------------------------------- 
step length          :   0.00500
SCC accuracy         :   0.30000
Hessian scale factor :   1.00000
frozen atoms in %    :   0.00000    0
RMS gradient         :   0.00004
estimated CPU  time      1.12 min
estimated wall time      0.14 min

writing file <hessian>.

 projected vibrational frequencies (cm⁻¹)
eigval :       -0.00    -0.00    -0.00    -0.00     0.00     0.00
eigval :       24.70    64.25    84.68   113.38   161.35   170.28
eigval :      201.61   222.56   248.05   262.17   315.12   361.13
eigval :      366.20   392.95   472.98   585.83   648.65   659.29
eigval :      679.08   690.53   736.48   760.64   769.41   872.90
eigval :      896.12   925.84   931.66   967.51   982.03   995.06
eigval :     1013.49  1017.29  1063.78  1077.74  1084.80  1115.17
eigval :     1123.33  1181.71  1203.76  1222.57  1230.89  1250.01
eigval :     1268.55  1280.17  1317.27  1407.77  1412.78  1421.44
eigval :     1448.81  1451.21  1462.04  1496.58  1499.48  1504.92
eigval :     1506.66  1578.23  1589.23  2936.12  2941.20  2951.51
eigval :     2955.09  3011.88  3012.19  3023.43  3025.10  3034.18
eigval :     3040.97  3054.13  3067.36  3074.37  3086.66  3093.39
           -------------------------------------------------
          |                Property Printout                |
           -------------------------------------------------

    * Orbital Energies and Occupations

         #    Occupation            Energy/Eh            Energy/eV
      -------------------------------------------------------------
         1        2.0000           -0.6587581             -17.9257
       ...           ...                  ...                  ...
        18        2.0000           -0.4754587             -12.9379
        19        2.0000           -0.4741817             -12.9031
        20        2.0000           -0.4670892             -12.7101
        21        2.0000           -0.4610112             -12.5448
        22        2.0000           -0.4564805             -12.4215
        23        2.0000           -0.4434888             -12.0679
        24        2.0000           -0.4381509             -11.9227
        25        2.0000           -0.4238788             -11.5343
        26        2.0000           -0.4164264             -11.3315
        27        2.0000           -0.4070416             -11.0762
        28        2.0000           -0.4029604             -10.9651
        29        2.0000           -0.3994721             -10.8702
        30        2.0000           -0.3641589              -9.9093 (HOMO)
        31                         -0.2300863              -6.2610 (LUMO)
        32                         -0.2216246              -6.0307
        33                         -0.1543293              -4.1995
        34                         -0.1503016              -4.0899
        35                         -0.0931436              -2.5346
        36                          0.0034808               0.0947
        37                          0.0493959               1.3441
        38                          0.0996296               2.7111
        39                          0.1120219               3.0483
        40                          0.1211921               3.2978
        41                          0.1308023               3.5593
       ...                                ...                  ...
        64                          0.7779550              21.1692
      -------------------------------------------------------------
                  HL-Gap            0.1340726 Eh            3.6483 eV
             Fermi-level           -0.2971226 Eh           -8.0851 eV

     #   Z          covCN         q      C6AA      α(0)
     1  15 P        3.031    -0.115   165.453    23.107
     2   6 C        3.748    -0.045    21.452     6.606
     3   1 H        0.926     0.040     2.447     2.446
     4   1 H        0.925     0.046     2.368     2.407
     5   6 C        3.822    -0.097    22.341     6.726
     6   1 H        0.925     0.041     2.434     2.440
     7   1 H        0.925     0.039     2.464     2.455
     8   1 H        0.925     0.031     2.569     2.506
     9   6 C        2.915     0.012    27.743     8.637
    10   6 C        3.034    -0.030    28.716     8.790
    11   6 C        2.955    -0.033    28.817     8.805
    12   6 C        2.918    -0.030    28.748     8.792
    13   6 C        2.920    -0.032    28.788     8.799
    14   6 C        2.920    -0.031    28.773     8.796
    15   1 H        0.925     0.035     2.521     2.483
    16   1 H        0.926     0.036     2.506     2.476
    17   1 H        0.926     0.029     2.606     2.524
    18   1 H        0.926     0.027     2.629     2.536
    19   1 H        0.926     0.028     2.617     2.530
    20   6 C        3.747    -0.046    21.460     6.607
    21   1 H        0.926     0.040     2.449     2.447
    22   1 H        0.926     0.042     2.421     2.433
    23   6 C        3.780    -0.096    22.347     6.734
    24   1 H        0.925     0.037     2.487     2.466
    25   1 H        0.925     0.038     2.471     2.458
    26   1 H        0.925     0.033     2.540     2.492

 Mol. C6AA /au·bohr⁶  :       7599.303123
 Mol. C8AA /au·bohr⁸  :     202588.107539
 Mol. α(0) /au        :        139.498839


Wiberg/Mayer (AO) data.
largest (>0.10) Wiberg bond orders for each atom

 ---------------------------------------------------------------------------
     #   Z sym  total        # sym  WBO       # sym  WBO       # sym  WBO
 ---------------------------------------------------------------------------
     1  15 P    3.375 --     2 C    1.030     9 C    1.017    20 C    1.012
     2   6 C    3.995 --     1 P    1.030     5 C    1.016     3 H    0.956
                             4 H    0.949
     3   1 H    0.998 --     2 C    0.956
     4   1 H    0.998 --     2 C    0.949
     5   6 C    3.997 --     2 C    1.016     6 H    0.985     8 H    0.985
                             7 H    0.983
     6   1 H    0.998 --     5 C    0.985
     7   1 H    0.998 --     5 C    0.983
     8   1 H    0.999 --     5 C    0.985
     9   6 C    3.982 --    11 C    1.404    10 C    1.390     1 P    1.017
                            14 C    0.106
    10   6 C    3.992 --    12 C    1.457     9 C    1.390    15 H    0.962
                            13 C    0.110
    11   6 C    3.993 --    13 C    1.439     9 C    1.404    16 H    0.961
                            12 C    0.107
    12   6 C    3.991 --    10 C    1.457    14 C    1.428    17 H    0.970
                            11 C    0.107
    13   6 C    3.993 --    14 C    1.442    11 C    1.439    18 H    0.970
                            10 C    0.110
    14   6 C    3.992 --    13 C    1.442    12 C    1.428    19 H    0.971
                             9 C    0.106
    15   1 H    0.999 --    10 C    0.962
    16   1 H    0.999 --    11 C    0.961
    17   1 H    0.999 --    12 C    0.970
    18   1 H    0.999 --    13 C    0.970
    19   1 H    0.998 --    14 C    0.971
    20   6 C    3.994 --     1 P    1.012    23 C    1.012    21 H    0.957
                            22 H    0.956
    21   1 H    0.998 --    20 C    0.957
    22   1 H    0.998 --    20 C    0.956
    23   6 C    3.997 --    20 C    1.012    24 H    0.985    26 H    0.983
                            25 H    0.983
    24   1 H    0.999 --    23 C    0.985
    25   1 H    0.999 --    23 C    0.983
    26   1 H    0.999 --    23 C    0.983
 ---------------------------------------------------------------------------

Topologies differ in total number of bonds
Writing topology from bond orders to xtbtopo.mol

molecular dipole:
                 x           y           z       tot (Debye)
 q only:        0.149       0.119       0.254
   full:        0.119       0.156       0.625       1.664
molecular quadrupole (traceless):
                xx          xy          yy          xz          yz          zz
 q only:        2.854      -0.481       0.820       0.548      -1.745      -3.674
  q+dip:        7.477       0.255       1.324       2.586      -5.976      -8.800
   full:        6.285       0.088       2.770       2.466      -3.887      -9.055

           -------------------------------------------------
          |                Geometry Summary                 |
           -------------------------------------------------

      molecular mass/u    :      166.2002322
   center of mass at/Å    :        0.7292542      -0.9361996      -1.9038098
  moments of inertia/u·Å² :        0.3630236E+03   0.7194849E+03   0.8734675E+03
rotational constants/cm⁻¹ :        0.4643673E-01   0.2343014E-01   0.1929967E-01

 * 24 selected distances

     #   Z          #   Z                                           value/Å
     1  15 P        2   6 C                                       1.8631714 (max)
     2   6 C        3   1 H                                       1.0942980
     2   6 C        4   1 H                                       1.0920295
     2   6 C        5   6 C                                       1.5243448
     5   6 C        6   1 H                                       1.0880613
     5   6 C        7   1 H                                       1.0884149
     5   6 C        8   1 H                                       1.0891866
     9   6 C       10   6 C                                       1.3938022
     9   6 C       11   6 C                                       1.3889325
    10   6 C       12   6 C                                       1.3808508
    11   6 C       13   6 C                                       1.3847432
    12   6 C       14   6 C                                       1.3857358
    13   6 C       14   6 C                                       1.3835431
    10   6 C       15   1 H                                       1.0821030
    11   6 C       16   1 H                                       1.0792959 (min)
    12   6 C       17   1 H                                       1.0806002
    13   6 C       18   1 H                                       1.0809728
    14   6 C       19   1 H                                       1.0801913
    20   6 C       21   1 H                                       1.0939795
    20   6 C       22   1 H                                       1.0936935
    20   6 C       23   6 C                                       1.5224445
    23   6 C       24   1 H                                       1.0870975
    23   6 C       25   1 H                                       1.0886563
    23   6 C       26   1 H                                       1.0890684

 * 3 distinct bonds (by element types)

   Z      Z             #   av. dist./Å        max./Å        min./Å
   1 H    6 C          15     1.0871766     1.0942980     1.0792959
   6 C    6 C           8     1.4205496     1.5243448     1.3808508
   6 C   15 P           1     1.8631714     1.8631714     1.8631714

           -------------------------------------------------
          |               Frequency Printout                |
           -------------------------------------------------
 projected vibrational frequencies (cm⁻¹)
eigval :       -0.00    -0.00    -0.00    -0.00     0.00     0.00
eigval :       24.70    64.25    84.68   113.38   161.35   170.28
eigval :      201.61   222.56   248.05   262.17   315.12   361.13
eigval :      366.20   392.95   472.98   585.83   648.65   659.29
eigval :      679.08   690.53   736.48   760.64   769.41   872.90
eigval :      896.12   925.84   931.66   967.51   982.03   995.06
eigval :     1013.49  1017.29  1063.78  1077.74  1084.80  1115.17
eigval :     1123.33  1181.71  1203.76  1222.57  1230.89  1250.01
eigval :     1268.55  1280.17  1317.27  1407.77  1412.78  1421.44
eigval :     1448.81  1451.21  1462.04  1496.58  1499.48  1504.92
eigval :     1506.66  1578.23  1589.23  2936.12  2941.20  2951.51
eigval :     2955.09  3011.88  3012.19  3023.43  3025.10  3034.18
eigval :     3040.97  3054.13  3067.36  3074.37  3086.66  3093.39
 reduced masses (amu)
   1: 11.61   2: 14.19   3: 13.81   4: 14.59   5: 11.34   6: 12.37   7:  9.92   8:  8.80
   9:  8.99  10:  9.74  11:  6.96  12:  6.67  13:  7.23  14:  6.90  15:  6.42  16:  8.78
  17: 13.08  18: 12.86  19: 10.45  20: 18.47  21: 12.80  22: 11.18  23: 13.90  24: 11.28
  25: 14.02  26: 12.63  27:  3.36  28:  6.97  29:  4.73  30:  3.30  31:  3.57  32:  4.14
  33:  2.97  34: 10.37  35:  3.28  36:  3.13  37:  3.64  38:  4.41  39:  9.55  40:  9.07
  41:  8.30  42:  8.50  43:  4.39  44:  1.31  45:  1.90  46:  3.63  47:  3.25  48:  4.25
  49:  4.13  50:  3.44  51: 11.94  52:  2.90  53:  2.94  54:  8.53  55:  2.39  56:  4.23
  57:  5.66  58:  1.53  59:  1.56  60:  1.56  61:  1.54  62: 11.43  63: 11.44  64:  1.93
  65:  1.98  66:  1.52  67:  1.51  68:  1.83  69:  1.87  70:  1.90  71:  1.70  72:  1.43
  73:  1.57  74:  1.80  75:  1.77  76:  1.83  77:  1.88  78:  1.86
 IR intensities (km·mol⁻¹)
   1:  0.19   2:  0.01   3:  0.03   4:  0.03   5:  0.01   6:  0.12   7:  0.10   8:  0.08
   9:  0.10  10:  0.28  11:  0.26  12:  0.21  13:  0.13  14:  0.21  15:  0.07  16:  0.73
  17:  0.18  18:  0.72  19:  0.21  20:  0.75  21:  5.21  22:  0.07  23: 11.94  24:  8.19
  25:  8.22  26: 10.52  27: 19.67  28: 38.17  29: 19.74  30:  0.11  31:  0.09  32:  0.08
  33:  0.00  34:  1.65  35:  4.74  36:  2.68  37:  0.75  38:  5.66  39:  6.13  40:  8.00
  41:  0.20  42:  1.58  43:  0.02  44:  0.01  45:  0.55  46:  2.20  47:  2.72  48:  6.38
  49:  6.93  50:  0.70  51:  0.43  52:  1.97  53:  2.06  54:  0.85  55:  0.63  56:  0.61
  57:  0.08  58:  2.03  59:  1.29  60:  1.48  61:  2.26  62:  0.41  63:  4.20  64:  4.37
  65: 44.34  66: 14.22  67: 23.18  68: 50.52  69: 47.02  70: 23.33  71: 30.05  72: 16.50
  73: 24.82  74: 17.01  75:  8.31  76: 48.12  77: 78.82  78: 23.18
 Raman intensities (Ä⁴*amu⁻¹)
   1:  0.00   2:  0.00   3:  0.00   4:  0.00   5:  0.00   6:  0.00   7:  0.00   8:  0.00
   9:  0.00  10:  0.00  11:  0.00  12:  0.00  13:  0.00  14:  0.00  15:  0.00  16:  0.00
  17:  0.00  18:  0.00  19:  0.00  20:  0.00  21:  0.00  22:  0.00  23:  0.00  24:  0.00
  25:  0.00  26:  0.00  27:  0.00  28:  0.00  29:  0.00  30:  0.00  31:  0.00  32:  0.00
  33:  0.00  34:  0.00  35:  0.00  36:  0.00  37:  0.00  38:  0.00  39:  0.00  40:  0.00
  41:  0.00  42:  0.00  43:  0.00  44:  0.00  45:  0.00  46:  0.00  47:  0.00  48:  0.00
  49:  0.00  50:  0.00  51:  0.00  52:  0.00  53:  0.00  54:  0.00  55:  0.00  56:  0.00
  57:  0.00  58:  0.00  59:  0.00  60:  0.00  61:  0.00  62:  0.00  63:  0.00  64:  0.00
  65:  0.00  66:  0.00  67:  0.00  68:  0.00  69:  0.00  70:  0.00  71:  0.00  72:  0.00
  73:  0.00  74:  0.00  75:  0.00  76:  0.00  77:  0.00  78:  0.00
 output can be read by thermo (or use thermo option).
 writing <g98.out> molden fake output.
 recommended (thermochemical) frequency scaling factor: 1.0
           -------------------------------------------------
          |             Thermodynamic Functions             |
           -------------------------------------------------

Molecule has no symmetry elements
It seems to be the C1 point group
c1  symmetry found (for desy threshold:  0.10E+00) used in thermo

          ...................................................
          :                      SETUP                      :
          :.................................................:
          :  # frequencies                          72      :
          :  # imaginary freq.                       0      :
          :  linear?                             false      :
          :  only rotor calc.                    false      :
          :  symmetry                               c1      :
          :  rotational number                       1      :
          :  scaling factor                  1.0000000      :
          :  rotor cutoff                   50.0000000 cm⁻¹ :
          :  imag. cutoff                  -20.0000000 cm⁻¹ :
          :.................................................:

    mode    ω/cm⁻¹     T·S(HO)/kcal·mol⁻¹    T·S(FR)/kcal·mol⁻¹   T·S(vib)
   ------------------------------------------------------------------------
       1     24.70    -1.85296 (  5.62%)    -1.26511 ( 94.38%)    -1.29817
       2     64.25    -1.28867 ( 73.17%)    -0.98215 ( 26.83%)    -1.20641
       3     84.68    -1.12680 ( 89.16%)    -0.90037 ( 10.84%)    -1.10226
       4    113.38    -0.95714 ( 96.36%)    -0.81395 (  3.64%)    -0.95192
       5    161.35    -0.75547 ( 99.09%)    -0.70943 (  0.91%)    -0.75505
       6    170.28    -0.72521 ( 99.26%)    -0.69348 (  0.74%)    -0.72497
       7    201.61    -0.63158 ( 99.62%)    -0.64345 (  0.38%)    -0.63162
       8    222.56    -0.57786 ( 99.75%)    -0.61417 (  0.25%)    -0.57795
       9    248.05    -0.52008 ( 99.84%)    -0.58205 (  0.16%)    -0.52019
      10    262.17    -0.49113 ( 99.87%)    -0.56565 (  0.13%)    -0.49123
   ------------------------------------------------------------------------

   temp. (K)  partition function   enthalpy   heat capacity  entropy
                                   cal/mol     cal/K/mol   cal/K/mol   J/K/mol
 298.15  VIB  0.146E+05             6121.538     39.478     37.352
         ROT  0.115E+07              888.752      2.981     30.720
         INT  0.169E+11             7010.291     42.459     68.072
         TR   0.207E+28             1481.254      4.968     41.214
         TOT                        8491.5447    47.4267   109.2854   457.2503

       T/K    H(0)-H(T)+PV         H(T)/Eh          T*S/Eh         G(T)/Eh
   ------------------------------------------------------------------------
    298.15    0.135321E-01    0.232463E+00    0.519250E-01    0.180538E+00
   ------------------------------------------------------------------------

         :::::::::::::::::::::::::::::::::::::::::::::::::::::
         ::                  THERMODYNAMIC                  ::
         :::::::::::::::::::::::::::::::::::::::::::::::::::::
         :: total free energy         -31.375124573091 Eh   ::
         ::.................................................::
         :: total energy              -31.555662976545 Eh   ::
         :: zero point energy           0.218931308108 Eh   ::
         :: G(RRHO) w/o ZPVE           -0.038392904653 Eh   ::
         :: G(RRHO) contrib.            0.180538403454 Eh   ::
         :::::::::::::::::::::::::::::::::::::::::::::::::::::

optimized geometry written to: xtbopt.xyz


           -------------------------------------------------
          | TOTAL ENERGY              -31.555662976545 Eh   |
          | TOTAL ENTHALPY            -31.323199530644 Eh   |
          | TOTAL FREE ENERGY         -31.375124573091 Eh   |
          | GRADIENT NORM               0.000041203069 Eh/α |
          | HOMO-LUMO GAP               3.648300665321 eV   |
           -------------------------------------------------

------------------------------------------------------------------------
 * finished run on 2025/07/14 at 11:26:04.086     
------------------------------------------------------------------------
 total:
 * wall-time:     0 d,  0 h,  0 min,  6.934 sec
 *  cpu-time:     0 d,  0 h,  1 min, 10.205 sec
 * ratio c/w:    10.124 speedup
 SCF:
 * wall-time:     0 d,  0 h,  0 min,  0.100 sec
 *  cpu-time:     0 d,  0 h,  0 min,  1.174 sec
 * ratio c/w:    11.693 speedup
 ANC optimizer:
 * wall-time:     0 d,  0 h,  0 min,  3.543 sec
 *  cpu-time:     0 d,  0 h,  0 min, 42.381 sec
 * ratio c/w:    11.964 speedup
 analytical hessian:
 * wall-time:     0 d,  0 h,  0 min,  3.270 sec
 *  cpu-time:     0 d,  0 h,  0 min, 26.463 sec
 * ratio c/w:     8.094 speedup

