      -----------------------------------------------------------      
     |                   =====================                   |     
     |                           x T B                           |     
     |                   =====================                   |     
     |                         S. Grimme                         |     
     |          Mulliken Center for Theoretical Chemistry        |     
     |                    University of Bonn                     |     
      -----------------------------------------------------------      

   * xtb version 6.7.0 (08769fc) compiled by 'albert@albert-system' on 2024-03-04

   xtb is free software: you can redistribute it and/or modify it under
   the terms of the GNU Lesser General Public License as published by
   the Free Software Foundation, either version 3 of the License, or
   (at your option) any later version.
   
   xtb is distributed in the hope that it will be useful,
   but WITHOUT ANY WARRANTY; without even the implied warranty of
   MERCHANTABILITY or FITNESS FOR A PARTICULAR PURPOSE.  See the
   GNU Lesser General Public License for more details.
   
   Cite this work as:
   * C. Bannwarth, E. Caldeweyher, S. Ehlert, A. Hansen, P. Pracht,
     J. Seibert, S. Spicher, S. Grimme, WIREs Comput. Mol. Sci., 2020, 11,
     e01493. DOI: 10.1002/wcms.1493
   
   for GFN2-xTB:
   * C. Bannwarth, S. Ehlert and S. Grimme., J. Chem. Theory Comput., 2019,
     15, 1652-1671. DOI: 10.1021/acs.jctc.8b01176
   for GFN1-xTB:
   * S. Grimme, C. Bannwarth, P. Shushkov, J. Chem. Theory Comput., 2017,
     13, 1989-2009. DOI: 10.1021/acs.jctc.7b00118
   for GFN0-xTB:
   * P. Pracht, E. Caldeweyher, S. Ehlert, S. Grimme, ChemRxiv, 2019, preprint.
     DOI: 10.26434/chemrxiv.8326202.v1
   for GFN-FF:
   * S. Spicher and S. Grimme, Angew. Chem. Int. Ed., 2020, 59, 15665-15673.
     DOI: 10.1002/anie.202004239
   
   for ALPB and GBSA implicit solvation:
   * S. Ehlert, M. Stahn, S. Spicher, S. Grimme, J. Chem. Theory Comput.,
     2021, 17, 4250-4261. DOI: 10.1021/acs.jctc.1c00471
   
   for ddCOSMO and CPCM-X implicit solvation:
   * M. Stahn, S. Ehlert, S. Grimme, J. Phys. Chem. A,
     2023, XX, XXXX-XXXX. DOI: 10.1021/acs.jpca.3c04382
   
   for DFT-D4:
   * E. Caldeweyher, C. Bannwarth and S. Grimme, J. Chem. Phys., 2017,
     147, 034112. DOI: 10.1063/1.4993215
   * E. Caldeweyher, S. Ehlert, A. Hansen, H. Neugebauer, S. Spicher,
     C. Bannwarth and S. Grimme, J. Chem. Phys., 2019, 150, 154122.
     DOI: 10.1063/1.5090222
   * E. Caldeweyher, J.-M. Mewes, S. Ehlert and S. Grimme, Phys. Chem. Chem. Phys.
     2020, 22, 8499-8512. DOI: 10.1039/D0CP00502A
   
   for sTDA-xTB:
   * S. Grimme and C. Bannwarth, J. Chem. Phys., 2016, 145, 054103.
     DOI: 10.1063/1.4959605
   
   in the mass-spec context:
   * V. Asgeirsson, C. Bauer and S. Grimme, Chem. Sci., 2017, 8, 4879.
     DOI: 10.1039/c7sc00601b
   * J. Koopman and S. Grimme, ACS Omega 2019, 4, 12, 15120-15133.
     DOI: 10.1021/acsomega.9b02011
   
   for metadynamics refer to:
   * S. Grimme, J. Chem. Theory Comput., 2019, 155, 2847-2862
     DOI: 10.1021/acs.jctc.9b00143
   
   for SPH calculations refer to:
   * S. Spicher and S. Grimme, J. Chem. Theory Comput., 2021, 17, 1701-1714
     DOI: 10.1021/acs.jctc.0c01306
   
   for ONIOM refer to:
   * C. Plett, A. Katbashev, S. Ehlert, S. Grimme, M. Bursch,
     Phys. Chem. Chem. Phys., 2023, 25, 17860-17868. DOI: 10.1039/D3CP02178E
   
   for DIPRO refer to:
   * J. Kohn, N. Gildemeister, S. Grimme, D. Fazzi, A. Hansen,
     J. Chem. Phys., 2023, just accepted.
   
   for PTB refer to:
   * S. Grimme, M. Mueller, A. Hansen, J. Chem. Phys., 2023, 158, 124111.
     DOI: 10.1063/5.0137838
   
   with help from (in alphabetical order)
   P. Atkinson, C. Bannwarth, F. Bohle, G. Brandenburg, E. Caldeweyher
   M. Checinski, S. Dohm, S. Ehlert, S. Ehrlich, I. Gerasimov, C. Hölzer
   A. Katbashev, J. Kohn, J. Koopman, C. Lavigne, S. Lehtola, F. März, M. Müller,
   F. Musil, H. Neugebauer, J. Pisarek, C. Plett, P. Pracht, F. Pultar,
   J. Seibert, P. Shushkov, S. Spicher, M. Stahn, M. Steiner, T. Strunk,
   J. Stückrath, T. Rose, and J. Unsleber
   
 * started run on 2025/07/14 at 11:28:17.324     
   ID    Z sym.   atoms
    1   15 P      1
    2    6 C      2, 5, 9-14, 20, 23
    3    1 H      3, 4, 6-8, 15-19, 21, 22, 24-26

           -------------------------------------------------
          |                Calculation Setup                |
           -------------------------------------------------

          program call               : /home/minenky/programs/xtb/xtb-dist/bin/xtb m1_00_PEt2Ph-PBE0-D3-TZ-uniMM_22.xyz --charge 0 --T --ohess extreme --cycles 5000 --acc 0.01 --iterations 5000
          coordinate file            : m1_00_PEt2Ph-PBE0-D3-TZ-uniMM_22.xyz
          omp threads                :                    12

########################################################################
[WARNING] Please study the warnings concerning your input carefully
-1- prog_main_parseArguments: Unknown option '--T' provided
########################################################################

           -------------------------------------------------
          |                 G F N 2 - x T B                 |
           -------------------------------------------------

        Reference                      10.1021/acs.jctc.8b01176
      * Hamiltonian:
        H0-scaling (s, p, d)           1.850000    2.230000    2.230000
        zeta-weighting                 0.500000
      * Dispersion:
        s8                             2.700000
        a1                             0.520000
        a2                             5.000000
        s9                             5.000000
      * Repulsion:
        kExp                           1.500000    1.000000
        rExp                           1.000000
      * Coulomb:
        alpha                          2.000000
        third order                    shell-resolved
        anisotropic                    true
        a3                             3.000000
        a5                             4.000000
        cn-shift                       1.200000
        cn-exp                         4.000000
        max-rad                        5.000000


          ...................................................
          :                      SETUP                      :
          :.................................................:
          :  # basis functions                  65          :
          :  # atomic orbitals                  64          :
          :  # shells                           38          :
          :  # electrons                        60          :
          :  max. iterations                  5000          :
          :  Hamiltonian                  GFN2-xTB          :
          :  restarted?                      false          :
          :  GBSA solvation                  false          :
          :  PC potential                    false          :
          :  electronic temp.          300.0000000     K    :
          :  accuracy                    0.0100000          :
          :  -> integral cutoff          0.4500000E+02      :
          :  -> integral neglect         0.1000000E-09      :
          :  -> SCF convergence          0.1000000E-07 Eh   :
          :  -> wf. convergence          0.1000000E-05 e    :
          :  Broyden damping             0.4000000          :
          :  net charge                          0          :
          :  unpaired electrons                  0          :
          ...................................................

 iter      E             dE          RMSdq      gap      omega  full diag
   1    -32.0100769 -0.320101E+02  0.361E+00    3.98       0.0  T
   2    -32.0553901 -0.453131E-01  0.212E+00    3.42       1.0  T
   3    -32.0552761  0.113958E-03  0.884E-01    3.12       1.0  T
   4    -32.0560240 -0.747860E-03  0.293E-01    3.14       1.0  T
   5    -32.0575935 -0.156949E-02  0.113E-01    3.19       1.0  T
   6    -32.0577929 -0.199490E-03  0.423E-02    3.18       1.0  T
   7    -32.0578074 -0.145075E-04  0.165E-02    3.19       1.2  T
   8    -32.0578085 -0.100717E-05  0.667E-03    3.18       2.9  T
   9    -32.0578089 -0.450708E-06  0.136E-03    3.18      14.4  T
  10    -32.0578089 -0.221387E-07  0.626E-04    3.18      31.3  T
  11    -32.0578089 -0.253557E-09  0.276E-04    3.18      71.2  T
  12    -32.0578089 -0.815376E-09  0.641E-05    3.18     305.8  T
  13    -32.0578089 -0.312639E-11  0.262E-05    3.18     747.2  T
  14    -32.0578089 -0.329692E-11  0.109E-05    3.18    1807.4  T
  15    -32.0578089 -0.197531E-11  0.216E-06    3.18    9087.0  T
  16    -32.0578089 -0.284217E-13  0.109E-06    3.18   18029.7  T

   *** convergence criteria satisfied after 16 iterations ***

         #    Occupation            Energy/Eh            Energy/eV
      -------------------------------------------------------------
         1        2.0000           -0.6594327             -17.9441
       ...           ...                  ...                  ...
        24        2.0000           -0.4350569             -11.8385
        25        2.0000           -0.4237109             -11.5298
        26        2.0000           -0.4202940             -11.4368
        27        2.0000           -0.4093772             -11.1397
        28        2.0000           -0.4046144             -11.0101
        29        2.0000           -0.3990993             -10.8600
        30        2.0000           -0.3528370              -9.6012 (HOMO)
        31                         -0.2358237              -6.4171 (LUMO)
        32                         -0.2247001              -6.1144
        33                         -0.1514872              -4.1222
        34                         -0.1375973              -3.7442
        35                         -0.0880889              -2.3970
       ...                                ...                  ...
        64                          0.7863183              21.3968
      -------------------------------------------------------------
                  HL-Gap            0.1170133 Eh            3.1841 eV
             Fermi-level           -0.2943304 Eh           -8.0091 eV

 SCC (total)                   0 d,  0 h,  0 min,  0.087 sec
 SCC setup                      ...        0 min,  0.000 sec (  0.147%)
 Dispersion                     ...        0 min,  0.000 sec (  0.142%)
 classical contributions        ...        0 min,  0.000 sec (  0.011%)
 integral evaluation            ...        0 min,  0.002 sec (  2.253%)
 iterations                     ...        0 min,  0.083 sec ( 95.326%)
 molecular gradient             ...        0 min,  0.002 sec (  1.996%)
 printout                       ...        0 min,  0.000 sec (  0.104%)

         :::::::::::::::::::::::::::::::::::::::::::::::::::::
         ::                     SUMMARY                     ::
         :::::::::::::::::::::::::::::::::::::::::::::::::::::
         :: total energy             -31.543072046772 Eh    ::
         :: gradient norm              0.056412619788 Eh/a0 ::
         :: HOMO-LUMO gap              3.184094087022 eV    ::
         ::.................................................::
         :: SCC energy               -32.057658762125 Eh    ::
         :: -> isotropic ES            0.004197266534 Eh    ::
         :: -> anisotropic ES          0.005883547370 Eh    ::
         :: -> anisotropic XC          0.022569004709 Eh    ::
         :: -> dispersion             -0.022772336982 Eh    ::
         :: repulsion energy           0.514586715353 Eh    ::
         :: add. restraining           0.000000000000 Eh    ::
         :: total charge              -0.000000000000 e     ::
         :::::::::::::::::::::::::::::::::::::::::::::::::::::

      ----------------------------------------------------------- 
     |                   =====================                   |
     |                        A N C O P T                        |
     |                   =====================                   |
     |               Approximate Normal Coordinate               |
     |                Rational Function Optimizer                |
      ----------------------------------------------------------- 
      ----------------------------------------------------------- 
     |                   =====================                   |
     |                        A N C O P T                        |
     |                   =====================                   |
     |               Approximate Normal Coordinate               |
     |                Rational Function Optimizer                |
      ----------------------------------------------------------- 

          ...................................................
          :                      SETUP                      :
          :.................................................:
          :   optimization level           extreme          :
          :   max. optcycles                  5000          :
          :   ANC micro-cycles                  20          :
          :   degrees of freedom                72          :
          :.................................................:
          :   RF solver                   davidson          :
          :   write xtbopt.log                true          :
          :   linear?                        false          :
          :   energy convergence         0.5000000E-07 Eh   :
          :   grad. convergence          0.5000000E-04 Eh/α :
          :   maxmium RF displ.          1.0000000          :
          :   Hlow (freq-cutoff)         0.1000000E-01      :
          :   Hmax (freq-cutoff)         5.0000000          :
          :   S6 in model hess.         20.0000000          :
          ...................................................

generating ANC from model Hessian ...
Using Lindh-Hessian (1995)
 Shifting diagonal of input Hessian by   9.086700920045427E-003
 Lowest  eigenvalues of input Hessian
    0.000000    0.000000    0.000000    0.000000    0.000000    0.000000
    0.010000    0.010164    0.010258    0.011117    0.011287    0.011383
    0.015563    0.017548    0.018193    0.019221    0.022026    0.023883
 Highest eigenvalues
    1.346828    1.534226    1.561851    1.863325    1.965383    1.985545
 

........................................................................
.............................. CYCLE    1 ..............................
........................................................................

 iter      E             dE          RMSdq      gap      omega  full diag
   1    -32.0578089 -0.320578E+02  0.442E-07    3.18       0.0  T
   2    -32.0578089  0.568434E-13  0.242E-07    3.18   81102.0  T
   3    -32.0578089 -0.355271E-13  0.157E-07    3.18  100000.0  T
     SCC iter.                  ...        0 min,  0.073 sec
     gradient                   ...        0 min,  0.002 sec
 * total energy  :   -31.5430720 Eh     change        0.2842171E-13 Eh
   gradient norm :     0.0564126 Eh/α   predicted     0.0000000E+00 (-100.00%)
   displ. norm   :     0.3437376 α      lambda       -0.1102520E-01
   maximum displ.:     0.1533051 α      in ANC's #13, #8, #43, ...

........................................................................
.............................. CYCLE    2 ..............................
........................................................................

 iter      E             dE          RMSdq      gap      omega  full diag
   1    -32.0622546 -0.320623E+02  0.474E-01    3.51       0.0  T
   2    -32.0626080 -0.353341E-03  0.205E-01    3.58       1.0  T
   3    -32.0626420 -0.340826E-04  0.700E-02    3.63       1.0  T
   4    -32.0626318  0.102018E-04  0.386E-02    3.63       1.0  T
   5    -32.0626520 -0.201526E-04  0.858E-03    3.63       2.3  T
   6    -32.0626530 -0.999706E-06  0.331E-03    3.63       5.9  T
   7    -32.0626530 -0.104131E-07  0.142E-03    3.63      13.9  T
   8    -32.0626530 -0.133121E-07  0.464E-04    3.63      42.3  T
   9    -32.0626530 -0.347651E-08  0.135E-04    3.63     145.1  T
  10    -32.0626530 -0.105651E-09  0.695E-05    3.63     282.1  T
  11    -32.0626530 -0.187157E-10  0.224E-05    3.63     874.0  T
  12    -32.0626530 -0.419931E-11  0.825E-06    3.63    2377.1  T
  13    -32.0626530 -0.177636E-12  0.386E-06    3.63    5084.2  T
     SCC iter.                  ...        0 min,  0.075 sec
     gradient                   ...        0 min,  0.002 sec
 * total energy  :   -31.5489998 Eh     change       -0.5927736E-02 Eh
   gradient norm :     0.0155731 Eh/α   predicted    -0.6164326E-02 (   3.99%)
   displ. norm   :     0.3002179 α      lambda       -0.1706682E-02
   maximum displ.:     0.2018139 α      in ANC's #6, #4, #11, ...

........................................................................
.............................. CYCLE    3 ..............................
........................................................................

 iter      E             dE          RMSdq      gap      omega  full diag
   1    -32.0667327 -0.320667E+02  0.103E-01    3.64       0.0  T
   2    -32.0667343 -0.163042E-05  0.606E-02    3.64       1.0  T
   3    -32.0667337  0.602303E-06  0.757E-03    3.64       2.6  T
   4    -32.0667345 -0.786766E-06  0.427E-03    3.64       4.6  T
   5    -32.0667347 -0.259802E-06  0.140E-03    3.64      14.0  T
   6    -32.0667347 -0.105952E-07  0.690E-04    3.64      28.4  T
   7    -32.0667347 -0.690278E-09  0.166E-04    3.64     118.2  T
   8    -32.0667347 -0.346311E-09  0.756E-05    3.64     259.5  T
   9    -32.0667347 -0.664997E-10  0.281E-05    3.64     697.7  T
  10    -32.0667347 -0.270717E-11  0.137E-05    3.64    1435.5  T
  11    -32.0667347 -0.137135E-11  0.501E-06    3.64    3914.4  T
  12    -32.0667347 -0.106581E-12  0.162E-06    3.64   12082.2  T
     SCC iter.                  ...        0 min,  0.074 sec
     gradient                   ...        0 min,  0.002 sec
 * total energy  :   -31.5502067 Eh     change       -0.1206930E-02 Eh
   gradient norm :     0.0081671 Eh/α   predicted    -0.9302592E-03 ( -22.92%)
   displ. norm   :     0.2845296 α      lambda       -0.8541148E-03
   maximum displ.:     0.1915694 α      in ANC's #6, #4, #13, ...

........................................................................
.............................. CYCLE    4 ..............................
........................................................................

 iter      E             dE          RMSdq      gap      omega  full diag
   1    -32.0689446 -0.320689E+02  0.905E-02    3.64       0.0  T
   2    -32.0689458 -0.116914E-05  0.551E-02    3.64       1.0  T
   3    -32.0689434  0.234786E-05  0.109E-02    3.64       1.8  T
   4    -32.0689461 -0.271439E-05  0.352E-03    3.64       5.6  T
   5    -32.0689463 -0.127013E-06  0.109E-03    3.64      18.1  T
   6    -32.0689463 -0.284535E-08  0.513E-04    3.64      38.2  T
   7    -32.0689463 -0.588457E-09  0.100E-04    3.64     195.8  T
   8    -32.0689463 -0.313563E-10  0.483E-05    3.64     406.2  T
   9    -32.0689463 -0.542144E-11  0.203E-05    3.64     966.4  T
  10    -32.0689463 -0.180478E-11  0.845E-06    3.64    2319.7  T
  11    -32.0689463 -0.206057E-12  0.387E-06    3.64    5074.0  T
     SCC iter.                  ...        0 min,  0.074 sec
     gradient                   ...        0 min,  0.002 sec
 * total energy  :   -31.5507482 Eh     change       -0.5415298E-03 Eh
   gradient norm :     0.0052849 Eh/α   predicted    -0.4616390E-03 ( -14.75%)
   displ. norm   :     0.1745874 α      lambda       -0.2284489E-03
   maximum displ.:     0.1151163 α      in ANC's #6, #4, #13, ...

........................................................................
.............................. CYCLE    5 ..............................
........................................................................

 iter      E             dE          RMSdq      gap      omega  full diag
   1    -32.0699374 -0.320699E+02  0.463E-02    3.63       0.0  T
   2    -32.0699378 -0.364013E-06  0.273E-02    3.63       1.0  T
   3    -32.0699375  0.266749E-06  0.453E-03    3.63       4.3  T
   4    -32.0699378 -0.347630E-06  0.154E-03    3.63      12.7  T
   5    -32.0699379 -0.202449E-07  0.835E-04    3.63      23.5  T
   6    -32.0699379 -0.485434E-08  0.326E-04    3.63      60.2  T
   7    -32.0699379 -0.121616E-09  0.819E-05    3.63     239.4  T
   8    -32.0699379 -0.147722E-10  0.379E-05    3.63     517.8  T
   9    -32.0699379 -0.205915E-10  0.133E-05    3.63    1469.1  T
  10    -32.0699379 -0.137845E-11  0.701E-06    3.63    2797.9  T
  11    -32.0699379 -0.220268E-12  0.217E-06    3.63    9023.3  T
     SCC iter.                  ...        0 min,  0.074 sec
     gradient                   ...        0 min,  0.002 sec
 * total energy  :   -31.5509200 Eh     change       -0.1717302E-03 Eh
   gradient norm :     0.0036944 Eh/α   predicted    -0.1177129E-03 ( -31.45%)
   displ. norm   :     0.2437725 α      lambda       -0.2226863E-03
   maximum displ.:     0.1308226 α      in ANC's #6, #4, #3, ...

........................................................................
.............................. CYCLE    6 ..............................
........................................................................

 iter      E             dE          RMSdq      gap      omega  full diag
   1    -32.0704703 -0.320705E+02  0.592E-02    3.62       0.0  T
   2    -32.0704709 -0.666253E-06  0.335E-02    3.62       1.0  T
   3    -32.0704709  0.219634E-07  0.482E-03    3.62       4.1  T
   4    -32.0704710 -0.108556E-06  0.148E-03    3.62      13.3  T
   5    -32.0704710 -0.153649E-07  0.700E-04    3.62      28.0  T
   6    -32.0704710 -0.166308E-08  0.360E-04    3.62      54.4  T
   7    -32.0704710 -0.346432E-09  0.855E-05    3.62     229.4  T
   8    -32.0704710 -0.303118E-10  0.417E-05    3.62     470.5  T
   9    -32.0704710 -0.144595E-10  0.137E-05    3.62    1429.3  T
  10    -32.0704710 -0.168399E-11  0.710E-06    3.62    2760.7  T
  11    -32.0704710 -0.291323E-12  0.261E-06    3.62    7507.9  T
     SCC iter.                  ...        0 min,  0.074 sec
     gradient                   ...        0 min,  0.002 sec
 * total energy  :   -31.5510920 Eh     change       -0.1720359E-03 Eh
   gradient norm :     0.0027055 Eh/α   predicted    -0.1179736E-03 ( -31.43%)
   displ. norm   :     0.2984710 α      lambda       -0.2142176E-03
   maximum displ.:     0.1855814 α      in ANC's #3, #4, #6, ...

........................................................................
.............................. CYCLE    7 ..............................
........................................................................

 iter      E             dE          RMSdq      gap      omega  full diag
   1    -32.0704534 -0.320705E+02  0.693E-02    3.62       0.0  T
   2    -32.0704545 -0.108107E-05  0.387E-02    3.62       1.0  T
   3    -32.0704544  0.736440E-07  0.703E-03    3.62       2.8  T
   4    -32.0704546 -0.147808E-06  0.208E-03    3.62       9.4  T
   5    -32.0704546 -0.530755E-07  0.681E-04    3.62      28.8  T
   6    -32.0704546 -0.563860E-08  0.424E-04    3.62      46.3  T
   7    -32.0704546 -0.127544E-08  0.853E-05    3.62     229.8  T
   8    -32.0704546 -0.409344E-10  0.392E-05    3.62     500.2  T
   9    -32.0704546 -0.881073E-11  0.155E-05    3.62    1263.6  T
  10    -32.0704546 -0.205347E-11  0.702E-06    3.62    2794.7  T
  11    -32.0704546 -0.220268E-12  0.220E-06    3.62    8923.7  T
     SCC iter.                  ...        0 min,  0.073 sec
     gradient                   ...        0 min,  0.002 sec
 * total energy  :   -31.5512657 Eh     change       -0.1737060E-03 Eh
   gradient norm :     0.0036420 Eh/α   predicted    -0.1166519E-03 ( -32.85%)
   displ. norm   :     0.2508312 α      lambda       -0.1777324E-03
   maximum displ.:     0.1791213 α      in ANC's #3, #4, #6, ...

........................................................................
.............................. CYCLE    8 ..............................
........................................................................

 iter      E             dE          RMSdq      gap      omega  full diag
   1    -32.0706559 -0.320707E+02  0.571E-02    3.62       0.0  T
   2    -32.0706567 -0.765300E-06  0.321E-02    3.62       1.0  T
   3    -32.0706565  0.147763E-06  0.626E-03    3.62       3.1  T
   4    -32.0706567 -0.126605E-06  0.260E-03    3.62       7.5  T
   5    -32.0706568 -0.120901E-06  0.572E-04    3.62      34.3  T
   6    -32.0706568 -0.257298E-08  0.317E-04    3.62      61.9  T
   7    -32.0706568 -0.522725E-09  0.732E-05    3.62     267.9  T
   8    -32.0706568 -0.411831E-10  0.300E-05    3.62     654.2  T
   9    -32.0706568 -0.699885E-11  0.131E-05    3.62    1499.1  T
  10    -32.0706568 -0.230926E-11  0.501E-06    3.62    3912.8  T
  11    -32.0706568 -0.426326E-13  0.141E-06    3.62   13938.2  T
     SCC iter.                  ...        0 min,  0.074 sec
     gradient                   ...        0 min,  0.002 sec
 * total energy  :   -31.5514221 Eh     change       -0.1563733E-03 Eh
   gradient norm :     0.0042060 Eh/α   predicted    -0.9445752E-04 ( -39.59%)
   displ. norm   :     0.2367525 α      lambda       -0.1850213E-03
   maximum displ.:     0.1801547 α      in ANC's #3, #4, #2, ...

........................................................................
.............................. CYCLE    9 ..............................
........................................................................

 iter      E             dE          RMSdq      gap      omega  full diag
   1    -32.0709440 -0.320709E+02  0.516E-02    3.62       0.0  T
   2    -32.0709446 -0.608451E-06  0.294E-02    3.62       1.0  T
   3    -32.0709444  0.156803E-06  0.554E-03    3.62       3.5  T
   4    -32.0709446 -0.123196E-06  0.266E-03    3.62       7.4  T
   5    -32.0709447 -0.122767E-06  0.599E-04    3.62      32.7  T
   6    -32.0709447 -0.129295E-08  0.302E-04    3.62      65.0  T
   7    -32.0709447 -0.399602E-09  0.847E-05    3.62     231.7  T
   8    -32.0709447 -0.509388E-10  0.297E-05    3.62     659.7  T
   9    -32.0709447 -0.153335E-10  0.124E-05    3.62    1585.9  T
  10    -32.0709447 -0.117950E-11  0.324E-06    3.62    6060.5  T
  11    -32.0709447 -0.426326E-13  0.138E-06    3.62   14203.0  T
     SCC iter.                  ...        0 min,  0.074 sec
     gradient                   ...        0 min,  0.002 sec
 * total energy  :   -31.5515881 Eh     change       -0.1660507E-03 Eh
   gradient norm :     0.0039750 Eh/α   predicted    -0.9769667E-04 ( -41.16%)
   displ. norm   :     0.2982198 α      lambda       -0.2272745E-03
   maximum displ.:     0.2282220 α      in ANC's #3, #4, #2, ...

........................................................................
.............................. CYCLE   10 ..............................
........................................................................

 iter      E             dE          RMSdq      gap      omega  full diag
   1    -32.0706053 -0.320706E+02  0.601E-02    3.62       0.0  T
   2    -32.0706059 -0.585062E-06  0.350E-02    3.62       1.0  T
   3    -32.0706057  0.175390E-06  0.570E-03    3.63       3.4  T
   4    -32.0706059 -0.208269E-06  0.232E-03    3.63       8.4  T
   5    -32.0706060 -0.734411E-07  0.739E-04    3.63      26.6  T
   6    -32.0706060 -0.470703E-08  0.343E-04    3.63      57.1  T
   7    -32.0706060 -0.346915E-09  0.851E-05    3.63     230.6  T
   8    -32.0706060 -0.931664E-10  0.313E-05    3.63     627.4  T
   9    -32.0706060 -0.165912E-10  0.121E-05    3.63    1627.4  T
  10    -32.0706060 -0.547118E-12  0.372E-06    3.63    5274.6  T
  11    -32.0706060 -0.781597E-13  0.182E-06    3.63   10768.0  T
     SCC iter.                  ...        0 min,  0.074 sec
     gradient                   ...        0 min,  0.002 sec
 * total energy  :   -31.5517910 Eh     change       -0.2029027E-03 Eh
   gradient norm :     0.0044369 Eh/α   predicted    -0.1237457E-03 ( -39.01%)
   displ. norm   :     0.4197623 α      lambda       -0.3147783E-03
   maximum displ.:     0.3293859 α      in ANC's #3, #4, #2, ...

........................................................................
.............................. CYCLE   11 ..............................
........................................................................

 iter      E             dE          RMSdq      gap      omega  full diag
   1    -32.0700787 -0.320701E+02  0.779E-02    3.63       0.0  T
   2    -32.0700795 -0.743854E-06  0.456E-02    3.63       1.0  T
   3    -32.0700793  0.178894E-06  0.591E-03    3.63       3.3  T
   4    -32.0700796 -0.256707E-06  0.246E-03    3.63       8.0  T
   5    -32.0700797 -0.830618E-07  0.886E-04    3.63      22.1  T
   6    -32.0700797 -0.627401E-08  0.409E-04    3.63      47.9  T
   7    -32.0700797 -0.421458E-09  0.110E-04    3.63     178.1  T
   8    -32.0700797 -0.158565E-09  0.374E-05    3.63     523.7  T
   9    -32.0700797 -0.172093E-10  0.175E-05    3.63    1119.1  T
  10    -32.0700797 -0.164846E-11  0.482E-06    3.63    4068.7  T
  11    -32.0700797 -0.994760E-13  0.230E-06    3.63    8509.9  T
     SCC iter.                  ...        0 min,  0.074 sec
     gradient                   ...        0 min,  0.002 sec
 * total energy  :   -31.5520578 Eh     change       -0.2667924E-03 Eh
   gradient norm :     0.0059289 Eh/α   predicted    -0.1851213E-03 ( -30.61%)
   displ. norm   :     0.5867329 α      lambda       -0.4165341E-03
   maximum displ.:     0.4758704 α      in ANC's #3, #4, #5, ...

........................................................................
.............................. CYCLE   12 ..............................
........................................................................

 iter      E             dE          RMSdq      gap      omega  full diag
   1    -32.0684637 -0.320685E+02  0.104E-01    3.64       0.0  T
   2    -32.0684647 -0.106256E-05  0.611E-02    3.64       1.0  T
   3    -32.0684645  0.254496E-06  0.698E-03    3.64       2.8  T
   4    -32.0684649 -0.448886E-06  0.270E-03    3.64       7.3  T
   5    -32.0684650 -0.989420E-07  0.114E-03    3.64      17.2  T
   6    -32.0684650 -0.104563E-07  0.499E-04    3.64      39.3  T
   7    -32.0684650 -0.357488E-09  0.128E-04    3.64     153.0  T
   8    -32.0684650 -0.250260E-09  0.478E-05    3.64     410.1  T
   9    -32.0684650 -0.200657E-10  0.209E-05    3.64     939.4  T
  10    -32.0684650 -0.300560E-11  0.729E-06    3.64    2690.1  T
  11    -32.0684650 -0.120792E-12  0.312E-06    3.64    6289.0  T
     SCC iter.                  ...        0 min,  0.074 sec
     gradient                   ...        0 min,  0.002 sec
 * total energy  :   -31.5523628 Eh     change       -0.3049679E-03 Eh
   gradient norm :     0.0092165 Eh/α   predicted    -0.2799634E-03 (  -8.20%)
   displ. norm   :     0.4053491 α      lambda       -0.4324093E-03
   maximum displ.:     0.3415147 α      in ANC's #3, #5, #4, ...

........................................................................
.............................. CYCLE   13 ..............................
........................................................................

 iter      E             dE          RMSdq      gap      omega  full diag
   1    -32.0716145 -0.320716E+02  0.736E-02    3.64       0.0  T
   2    -32.0716175 -0.309529E-05  0.424E-02    3.64       1.0  T
   3    -32.0716175  0.194093E-07  0.133E-02    3.64       1.5  T
   4    -32.0716179 -0.346569E-06  0.259E-03    3.64       7.6  T
   5    -32.0716179  0.348102E-09  0.179E-03    3.64      11.0  T
   6    -32.0716179 -0.124151E-07  0.630E-04    3.64      31.1  T
   7    -32.0716179 -0.167462E-08  0.196E-04    3.64     100.1  T
   8    -32.0716179 -0.361617E-09  0.681E-05    3.64     288.0  T
   9    -32.0716179 -0.172236E-10  0.380E-05    3.64     516.6  T
  10    -32.0716179 -0.265743E-11  0.154E-05    3.64    1271.4  T
  11    -32.0716179 -0.148503E-11  0.410E-06    3.64    4780.0  T
  12    -32.0716179 -0.497380E-13  0.176E-06    3.64   11162.4  T
     SCC iter.                  ...        0 min,  0.074 sec
     gradient                   ...        0 min,  0.002 sec
 * total energy  :   -31.5526302 Eh     change       -0.2673577E-03 Eh
   gradient norm :     0.0081614 Eh/α   predicted    -0.2517340E-03 (  -5.84%)
   displ. norm   :     0.5878247 α      lambda       -0.5853237E-03
   maximum displ.:     0.4592237 α      in ANC's #3, #4, #5, ...

........................................................................
.............................. CYCLE   14 ..............................
........................................................................

 iter      E             dE          RMSdq      gap      omega  full diag
   1    -32.0670987 -0.320671E+02  0.129E-01    3.65       0.0  T
   2    -32.0671040 -0.525178E-05  0.730E-02    3.65       1.0  T
   3    -32.0671037  0.253592E-06  0.159E-02    3.65       1.2  T
   4    -32.0671045 -0.796679E-06  0.309E-03    3.65       6.3  T
   5    -32.0671046 -0.444710E-07  0.193E-03    3.65      10.2  T
   6    -32.0671046 -0.308913E-07  0.762E-04    3.65      25.7  T
   7    -32.0671046 -0.507910E-08  0.232E-04    3.65      84.5  T
   8    -32.0671046 -0.305917E-09  0.872E-05    3.65     225.0  T
   9    -32.0671046 -0.481108E-10  0.417E-05    3.65     470.2  T
  10    -32.0671046 -0.926548E-11  0.157E-05    3.65    1249.2  T
  11    -32.0671046 -0.108713E-11  0.519E-06    3.65    3781.0  T
  12    -32.0671046 -0.355271E-13  0.165E-06    3.65   11921.8  T
     SCC iter.                  ...        0 min,  0.074 sec
     gradient                   ...        0 min,  0.002 sec
 * total energy  :   -31.5530073 Eh     change       -0.3771402E-03 Eh
   gradient norm :     0.0110399 Eh/α   predicted    -0.3937910E-03 (   4.42%)
   displ. norm   :     0.2824285 α      lambda       -0.7060612E-03
   maximum displ.:     0.1298931 α      in ANC's #10, #6, #5, ...

........................................................................
.............................. CYCLE   15 ..............................
........................................................................

 iter      E             dE          RMSdq      gap      omega  full diag
   1    -32.0720569 -0.320721E+02  0.114E-01    3.66       0.0  T
   2    -32.0720595 -0.258665E-05  0.654E-02    3.66       1.0  T
   3    -32.0720587  0.860604E-06  0.114E-02    3.66       1.7  T
   4    -32.0720599 -0.118624E-05  0.418E-03    3.66       4.7  T
   5    -32.0720600 -0.164990E-06  0.237E-03    3.66       8.3  T
   6    -32.0720601 -0.348239E-07  0.834E-04    3.66      23.5  T
   7    -32.0720601  0.326033E-09  0.198E-04    3.66      98.8  T
   8    -32.0720601 -0.657479E-09  0.783E-05    3.66     250.3  T
   9    -32.0720601 -0.764970E-10  0.338E-05    3.66     579.4  T
  10    -32.0720601 -0.633094E-11  0.121E-05    3.66    1616.2  T
  11    -32.0720601 -0.653699E-12  0.425E-06    3.66    4615.9  T
  12    -32.0720601 -0.781597E-13  0.174E-06    3.66   11258.9  T
     SCC iter.                  ...        0 min,  0.074 sec
     gradient                   ...        0 min,  0.002 sec
 * total energy  :   -31.5533667 Eh     change       -0.3593841E-03 Eh
   gradient norm :     0.0112017 Eh/α   predicted    -0.3811940E-03 (   6.07%)
   displ. norm   :     0.4489067 α      lambda       -0.5242157E-03
   maximum displ.:     0.3552461 α      in ANC's #3, #4, #5, ...

........................................................................
.............................. CYCLE   16 ..............................
........................................................................

 iter      E             dE          RMSdq      gap      omega  full diag
   1    -32.0709243 -0.320709E+02  0.999E-02    3.66       0.0  T
   2    -32.0709254 -0.106215E-05  0.617E-02    3.66       1.0  T
   3    -32.0709251  0.269538E-06  0.844E-03    3.66       2.3  T
   4    -32.0709257 -0.537078E-06  0.221E-03    3.66       8.9  T
   5    -32.0709257 -0.815101E-08  0.106E-03    3.66      18.6  T
   6    -32.0709257 -0.101481E-07  0.502E-04    3.66      39.0  T
   7    -32.0709257 -0.204275E-08  0.116E-04    3.66     169.1  T
   8    -32.0709257 -0.572484E-10  0.490E-05    3.66     400.4  T
   9    -32.0709257 -0.158664E-10  0.201E-05    3.66     975.8  T
  10    -32.0709257 -0.647304E-11  0.447E-06    3.66    4390.2  T
  11    -32.0709257  0.142109E-13  0.202E-06    3.66    9715.8  T
     SCC iter.                  ...        0 min,  0.074 sec
     gradient                   ...        0 min,  0.002 sec
 * total energy  :   -31.5537009 Eh     change       -0.3342628E-03 Eh
   gradient norm :     0.0082412 Eh/α   predicted    -0.3149271E-03 (  -5.78%)
   displ. norm   :     0.2268388 α      lambda       -0.3465218E-03
   maximum displ.:     0.1716307 α      in ANC's #3, #2, #5, ...

........................................................................
.............................. CYCLE   17 ..............................
........................................................................

 iter      E             dE          RMSdq      gap      omega  full diag
   1    -32.0739555 -0.320740E+02  0.679E-02    3.65       0.0  T
   2    -32.0739590 -0.352067E-05  0.406E-02    3.64       1.0  T
   3    -32.0739589  0.109529E-06  0.107E-02    3.64       1.8  T
   4    -32.0739593 -0.322281E-06  0.310E-03    3.64       6.3  T
   5    -32.0739593 -0.608610E-07  0.173E-03    3.64      11.3  T
   6    -32.0739594 -0.435441E-07  0.669E-04    3.64      29.3  T
   7    -32.0739594 -0.248630E-08  0.211E-04    3.64      92.9  T
   8    -32.0739594 -0.145235E-09  0.739E-05    3.64     265.4  T
   9    -32.0739594 -0.200089E-10  0.415E-05    3.64     472.4  T
  10    -32.0739594 -0.545697E-11  0.146E-05    3.64    1347.4  T
  11    -32.0739594 -0.101608E-11  0.452E-06    3.64    4339.0  T
  12    -32.0739594  0.213163E-13  0.106E-06    3.64   18462.8  T
     SCC iter.                  ...        0 min,  0.074 sec
     gradient                   ...        0 min,  0.002 sec
 * total energy  :   -31.5538926 Eh     change       -0.1916187E-03 Eh
   gradient norm :     0.0053972 Eh/α   predicted    -0.1821780E-03 (  -4.93%)
   displ. norm   :     0.5354549 α      lambda       -0.3454030E-03
   maximum displ.:     0.4311312 α      in ANC's #3, #4, #5, ...

........................................................................
.............................. CYCLE   18 ..............................
........................................................................

 iter      E             dE          RMSdq      gap      omega  full diag
   1    -32.0682745 -0.320683E+02  0.131E-01    3.64       0.0  T
   2    -32.0682775 -0.292862E-05  0.745E-02    3.64       1.0  T
   3    -32.0682772  0.242145E-06  0.135E-02    3.63       1.4  T
   4    -32.0682779 -0.726893E-06  0.272E-03    3.63       7.2  T
   5    -32.0682779 -0.169360E-08  0.155E-03    3.63      12.7  T
   6    -32.0682780 -0.274791E-07  0.628E-04    3.63      31.2  T
   7    -32.0682780 -0.319773E-08  0.236E-04    3.63      83.2  T
   8    -32.0682780 -0.142094E-09  0.580E-05    3.63     338.0  T
   9    -32.0682780 -0.295017E-10  0.269E-05    3.63     729.3  T
  10    -32.0682780 -0.808598E-11  0.112E-05    3.63    1758.0  T
  11    -32.0682780 -0.121503E-11  0.390E-06    3.63    5032.5  T
  12    -32.0682780 -0.852651E-13  0.138E-06    3.63   14165.3  T
     SCC iter.                  ...        0 min,  0.075 sec
     gradient                   ...        0 min,  0.002 sec
 * total energy  :   -31.5540168 Eh     change       -0.1242346E-03 Eh
   gradient norm :     0.0096147 Eh/α   predicted    -0.2222204E-03 (  78.87%)
   displ. norm   :     0.0874361 α      lambda       -0.2722289E-03
   maximum displ.:     0.0422141 α      in ANC's #2, #5, #3, ...

........................................................................
.............................. CYCLE   19 ..............................
........................................................................

 iter      E             dE          RMSdq      gap      omega  full diag
   1    -32.0726433 -0.320726E+02  0.524E-02    3.64       0.0  T
   2    -32.0726448 -0.150824E-05  0.286E-02    3.64       1.0  T
   3    -32.0726449 -0.601421E-07  0.103E-02    3.64       1.9  T
   4    -32.0726451 -0.162391E-06  0.213E-03    3.64       9.2  T
   5    -32.0726451 -0.244922E-08  0.123E-03    3.64      16.0  T
   6    -32.0726451 -0.693342E-08  0.574E-04    3.64      34.2  T
   7    -32.0726451 -0.697959E-09  0.156E-04    3.64     126.0  T
   8    -32.0726451 -0.287848E-09  0.419E-05    3.64     467.5  T
   9    -32.0726451 -0.573408E-11  0.205E-05    3.64     954.5  T
  10    -32.0726451 -0.362377E-11  0.504E-06    3.64    3893.1  T
  11    -32.0726451 -0.291323E-12  0.273E-06    3.64    7195.9  T
     SCC iter.                  ...        0 min,  0.074 sec
     gradient                   ...        0 min,  0.002 sec
 * total energy  :   -31.5541456 Eh     change       -0.1288480E-03 Eh
   gradient norm :     0.0059545 Eh/α   predicted    -0.1371592E-03 (   6.45%)
   displ. norm   :     0.1265354 α      lambda       -0.1654613E-03
   maximum displ.:     0.0632308 α      in ANC's #3, #2, #1, ...

........................................................................
.............................. CYCLE   20 ..............................
........................................................................

 iter      E             dE          RMSdq      gap      omega  full diag
   1    -32.0751982 -0.320752E+02  0.595E-02    3.65       0.0  T
   2    -32.0752005 -0.236404E-05  0.323E-02    3.65       1.0  T
   3    -32.0752006 -0.642634E-07  0.830E-03    3.65       2.4  T
   4    -32.0752007 -0.128634E-06  0.288E-03    3.65       6.8  T
   5    -32.0752008 -0.690576E-07  0.111E-03    3.65      17.7  T
   6    -32.0752008 -0.418181E-08  0.592E-04    3.65      33.1  T
   7    -32.0752008 -0.346348E-08  0.268E-04    3.65      73.3  T
   8    -32.0752008 -0.257565E-09  0.746E-05    3.65     262.7  T
   9    -32.0752008 -0.333458E-10  0.302E-05    3.65     648.8  T
  10    -32.0752008 -0.594724E-11  0.110E-05    3.65    1775.2  T
  11    -32.0752008 -0.582645E-12  0.352E-06    3.65    5578.0  T
  12    -32.0752008 -0.497380E-13  0.959E-07    3.65   20446.4  T
     SCC iter.                  ...        0 min,  0.074 sec
     gradient                   ...        0 min,  0.002 sec
 * total energy  :   -31.5541605 Eh     change       -0.1486834E-04 Eh
   gradient norm :     0.0066031 Eh/α   predicted    -0.8405691E-04 ( 465.34%)
   displ. norm   :     0.1950548 α      lambda       -0.1574768E-03
   maximum displ.:     0.1521554 α      in ANC's #3, #4, #5, ...
 * RMSD in coord.:     0.9510217 α      energy gain  -0.1108847E-01 Eh

generating ANC from model Hessian ...
Using Lindh-Hessian (1995)
 Shifting diagonal of input Hessian by   9.148917751671350E-003
 Lowest  eigenvalues of input Hessian
    0.000000    0.000000    0.000000    0.000000    0.000000    0.000000
    0.010000    0.010201    0.010725    0.010961    0.011139    0.012903
    0.015511    0.017248    0.017771    0.019030    0.019638    0.024185
 Highest eigenvalues
    1.363331    1.553904    1.572874    1.881400    1.987879    2.004170
 

........................................................................
.............................. CYCLE   21 ..............................
........................................................................

 iter      E             dE          RMSdq      gap      omega  full diag
   1    -32.0734468 -0.320734E+02  0.487E-02    3.65       0.0  T
   2    -32.0734477 -0.852801E-06  0.286E-02    3.65       1.0  T
   3    -32.0734475  0.119044E-06  0.723E-03    3.65       2.7  T
   4    -32.0734478 -0.268735E-06  0.134E-03    3.65      14.6  T
   5    -32.0734478 -0.267207E-08  0.633E-04    3.65      31.0  T
   6    -32.0734478 -0.302607E-08  0.299E-04    3.65      65.6  T
   7    -32.0734478 -0.819107E-09  0.114E-04    3.65     171.7  T
   8    -32.0734478 -0.328129E-10  0.370E-05    3.65     530.1  T
   9    -32.0734478 -0.795097E-11  0.168E-05    3.65    1167.6  T
  10    -32.0734478 -0.272848E-11  0.503E-06    3.65    3899.2  T
  11    -32.0734478 -0.298428E-12  0.151E-06    3.65   12984.3  T
     SCC iter.                  ...        0 min,  0.074 sec
     gradient                   ...        0 min,  0.002 sec
 * total energy  :   -31.5542455 Eh     change       -0.8498481E-04 Eh
   gradient norm :     0.0025796 Eh/α   predicted     0.0000000E+00 (-100.00%)
   displ. norm   :     0.0483815 α      lambda       -0.5342595E-04
   maximum displ.:     0.0239540 α      in ANC's #3, #10, #6, ...

........................................................................
.............................. CYCLE   22 ..............................
........................................................................

 iter      E             dE          RMSdq      gap      omega  full diag
   1    -32.0743311 -0.320743E+02  0.201E-02    3.65       0.0  T
   2    -32.0743312 -0.769717E-07  0.117E-02    3.64       1.7  T
   3    -32.0743311  0.312619E-07  0.180E-03    3.64      10.9  T
   4    -32.0743312 -0.426800E-07  0.647E-04    3.64      30.3  T
   5    -32.0743312 -0.469630E-08  0.311E-04    3.64      63.0  T
   6    -32.0743312 -0.103866E-08  0.995E-05    3.64     197.2  T
   7    -32.0743312 -0.109566E-10  0.459E-05    3.64     427.5  T
   8    -32.0743312 -0.246558E-10  0.105E-05    3.64    1867.5  T
   9    -32.0743312 -0.468958E-12  0.529E-06    3.64    3707.1  T
  10    -32.0743312 -0.156319E-12  0.151E-06    3.64   12967.0  T
     SCC iter.                  ...        0 min,  0.073 sec
     gradient                   ...        0 min,  0.002 sec
 * total energy  :   -31.5542868 Eh     change       -0.4128780E-04 Eh
   gradient norm :     0.0011010 Eh/α   predicted    -0.2691956E-04 ( -34.80%)
   displ. norm   :     0.1863874 α      lambda       -0.7486248E-04
   maximum displ.:     0.0990269 α      in ANC's #3, #6, #1, ...

........................................................................
.............................. CYCLE   23 ..............................
........................................................................

 iter      E             dE          RMSdq      gap      omega  full diag
   1    -32.0752539 -0.320753E+02  0.588E-02    3.65       0.0  T
   2    -32.0752541 -0.196416E-06  0.348E-02    3.65       1.0  T
   3    -32.0752540  0.457364E-07  0.254E-03    3.65       7.7  T
   4    -32.0752541 -0.964967E-07  0.129E-03    3.65      15.2  T
   5    -32.0752541 -0.159418E-07  0.600E-04    3.65      32.7  T
   6    -32.0752541 -0.214349E-08  0.186E-04    3.65     105.5  T
   7    -32.0752541 -0.449205E-10  0.607E-05    3.65     323.3  T
   8    -32.0752541 -0.663647E-11  0.218E-05    3.65     901.7  T
   9    -32.0752541 -0.108713E-11  0.799E-06    3.65    2453.8  T
  10    -32.0752541 -0.170530E-12  0.224E-06    3.65    8767.6  T
     SCC iter.                  ...        0 min,  0.073 sec
     gradient                   ...        0 min,  0.002 sec
 * total energy  :   -31.5543585 Eh     change       -0.7170384E-04 Eh
   gradient norm :     0.0024756 Eh/α   predicted    -0.3801555E-04 ( -46.98%)
   displ. norm   :     0.1246007 α      lambda       -0.5401034E-04
   maximum displ.:     0.0698192 α      in ANC's #3, #1, #6, ...

........................................................................
.............................. CYCLE   24 ..............................
........................................................................

 iter      E             dE          RMSdq      gap      omega  full diag
   1    -32.0748852 -0.320749E+02  0.399E-02    3.65       0.0  T
   2    -32.0748853 -0.112787E-06  0.234E-02    3.65       1.0  T
   3    -32.0748853 -0.458678E-08  0.169E-03    3.65      11.6  T
   4    -32.0748853 -0.123685E-07  0.800E-04    3.65      24.5  T
   5    -32.0748853 -0.575634E-08  0.416E-04    3.65      47.2  T
   6    -32.0748853 -0.169197E-08  0.166E-04    3.65     118.1  T
   7    -32.0748853 -0.117666E-10  0.483E-05    3.65     405.7  T
   8    -32.0748853 -0.268017E-10  0.119E-05    3.65    1652.4  T
   9    -32.0748853  0.000000E+00  0.731E-06    3.65    2681.6  T
  10    -32.0748853 -0.675016E-12  0.110E-06    3.65   17903.1  T
     SCC iter.                  ...        0 min,  0.073 sec
     gradient                   ...        0 min,  0.002 sec
 * total energy  :   -31.5544056 Eh     change       -0.4715275E-04 Eh
   gradient norm :     0.0025694 Eh/α   predicted    -0.2742690E-04 ( -41.83%)
   displ. norm   :     0.2351359 α      lambda       -0.9424784E-04
   maximum displ.:     0.1338663 α      in ANC's #3, #1, #6, ...

........................................................................
.............................. CYCLE   25 ..............................
........................................................................

 iter      E             dE          RMSdq      gap      omega  full diag
   1    -32.0737046 -0.320737E+02  0.799E-02    3.65       0.0  T
   2    -32.0737051 -0.494502E-06  0.465E-02    3.65       1.0  T
   3    -32.0737051 -0.536557E-07  0.333E-03    3.65       5.9  T
   4    -32.0737051 -0.230385E-07  0.150E-03    3.65      13.1  T
   5    -32.0737052 -0.155954E-07  0.802E-04    3.65      24.5  T
   6    -32.0737052 -0.608773E-08  0.288E-04    3.65      68.2  T
   7    -32.0737052  0.420499E-10  0.992E-05    3.65     197.8  T
   8    -32.0737052 -0.124338E-09  0.267E-05    3.65     734.7  T
   9    -32.0737052  0.166267E-11  0.148E-05    3.65    1324.3  T
  10    -32.0737052 -0.306954E-11  0.211E-06    3.65    9292.5  T
  11    -32.0737052 -0.213163E-13  0.990E-07    3.65   19810.9  T
     SCC iter.                  ...        0 min,  0.074 sec
     gradient                   ...        0 min,  0.002 sec
 * total energy  :   -31.5544689 Eh     change       -0.6325580E-04 Eh
   gradient norm :     0.0029699 Eh/α   predicted    -0.4973879E-04 ( -21.37%)
   displ. norm   :     0.1126132 α      lambda       -0.3871332E-04
   maximum displ.:     0.0699566 α      in ANC's #3, #1, #4, ...

........................................................................
.............................. CYCLE   26 ..............................
........................................................................

 iter      E             dE          RMSdq      gap      omega  full diag
   1    -32.0737981 -0.320738E+02  0.437E-02    3.65       0.0  T
   2    -32.0737984 -0.207002E-06  0.252E-02    3.65       1.0  T
   3    -32.0737984 -0.139408E-07  0.223E-03    3.65       8.8  T
   4    -32.0737984 -0.847115E-08  0.957E-04    3.65      20.5  T
   5    -32.0737984 -0.643553E-08  0.489E-04    3.65      40.1  T
   6    -32.0737984 -0.256787E-08  0.162E-04    3.65     121.3  T
   7    -32.0737984 -0.319673E-10  0.384E-05    3.65     510.8  T
   8    -32.0737984 -0.365930E-10  0.114E-05    3.65    1718.7  T
   9    -32.0737984 -0.198952E-12  0.489E-06    3.65    4009.1  T
  10    -32.0737984 -0.220268E-12  0.156E-06    3.65   12606.7  T
     SCC iter.                  ...        0 min,  0.073 sec
     gradient                   ...        0 min,  0.002 sec
 * total energy  :   -31.5544981 Eh     change       -0.2921483E-04 Eh
   gradient norm :     0.0017585 Eh/α   predicted    -0.1961276E-04 ( -32.87%)
   displ. norm   :     0.1688754 α      lambda       -0.3338163E-04
   maximum displ.:     0.1107813 α      in ANC's #3, #1, #5, ...

........................................................................
.............................. CYCLE   27 ..............................
........................................................................

 iter      E             dE          RMSdq      gap      omega  full diag
   1    -32.0745732 -0.320746E+02  0.694E-02    3.65       0.0  T
   2    -32.0745738 -0.579888E-06  0.400E-02    3.65       1.0  T
   3    -32.0745738 -0.283459E-07  0.363E-03    3.65       5.4  T
   4    -32.0745738 -0.261543E-07  0.144E-03    3.65      13.6  T
   5    -32.0745738 -0.144404E-07  0.788E-04    3.65      24.9  T
   6    -32.0745739 -0.764807E-08  0.265E-04    3.65      74.1  T
   7    -32.0745739 -0.111889E-09  0.639E-05    3.65     306.8  T
   8    -32.0745739 -0.979412E-10  0.176E-05    3.65    1111.3  T
   9    -32.0745739 -0.355271E-13  0.718E-06    3.65    2730.1  T
  10    -32.0745739 -0.497380E-12  0.226E-06    3.65    8695.8  T
     SCC iter.                  ...        0 min,  0.073 sec
     gradient                   ...        0 min,  0.002 sec
 * total energy  :   -31.5545322 Eh     change       -0.3408181E-04 Eh
   gradient norm :     0.0017446 Eh/α   predicted    -0.1690718E-04 ( -50.39%)
   displ. norm   :     0.1731353 α      lambda       -0.2553794E-04
   maximum displ.:     0.1167792 α      in ANC's #3, #1, #5, ...

........................................................................
.............................. CYCLE   28 ..............................
........................................................................

 iter      E             dE          RMSdq      gap      omega  full diag
   1    -32.0743278 -0.320743E+02  0.694E-02    3.65       0.0  T
   2    -32.0743281 -0.340355E-06  0.401E-02    3.65       1.0  T
   3    -32.0743282 -0.264430E-07  0.298E-03    3.65       6.6  T
   4    -32.0743281  0.435946E-08  0.138E-03    3.65      14.2  T
   5    -32.0743282 -0.420026E-07  0.438E-04    3.65      44.7  T
   6    -32.0743282 -0.596749E-09  0.175E-04    3.65     112.1  T
   7    -32.0743282 -0.923635E-10  0.360E-05    3.65     544.1  T
   8    -32.0743282 -0.257359E-10  0.981E-06    3.65    1999.2  T
   9    -32.0743282 -0.390799E-12  0.544E-06    3.65    3601.9  T
     SCC iter.                  ...        0 min,  0.074 sec
     gradient                   ...        0 min,  0.002 sec
 * total energy  :   -31.5545633 Eh     change       -0.3111011E-04 Eh
   gradient norm :     0.0019228 Eh/α   predicted    -0.1294167E-04 ( -58.40%)
   displ. norm   :     0.2405209 α      lambda       -0.4456981E-04
   maximum displ.:     0.1590659 α      in ANC's #3, #1, #5, ...

........................................................................
.............................. CYCLE   29 ..............................
........................................................................

 iter      E             dE          RMSdq      gap      omega  full diag
   1    -32.0753988 -0.320754E+02  0.980E-02    3.65       0.0  T
   2    -32.0753997 -0.850518E-06  0.570E-02    3.65       1.0  T
   3    -32.0753997 -0.225000E-08  0.477E-03    3.65       4.1  T
   4    -32.0753998 -0.955263E-07  0.192E-03    3.65      10.2  T
   5    -32.0753998 -0.372554E-07  0.933E-04    3.65      21.0  T
   6    -32.0753998 -0.124595E-07  0.404E-04    3.65      48.5  T
   7    -32.0753998 -0.284494E-09  0.853E-05    3.65     229.8  T
   8    -32.0753998 -0.186517E-10  0.271E-05    3.65     722.7  T
   9    -32.0753998 -0.535039E-11  0.125E-05    3.65    1563.6  T
  10    -32.0753998 -0.193268E-11  0.346E-06    3.65    5661.0  T
  11    -32.0753998 -0.213163E-13  0.990E-07    3.65   19818.5  T
     SCC iter.                  ...        0 min,  0.075 sec
     gradient                   ...        0 min,  0.002 sec
 * total energy  :   -31.5546084 Eh     change       -0.4510248E-04 Eh
   gradient norm :     0.0022762 Eh/α   predicted    -0.2286001E-04 ( -49.32%)
   displ. norm   :     0.1809918 α      lambda       -0.2989743E-04
   maximum displ.:     0.1257452 α      in ANC's #3, #1, #5, ...

........................................................................
.............................. CYCLE   30 ..............................
........................................................................

 iter      E             dE          RMSdq      gap      omega  full diag
   1    -32.0744950 -0.320745E+02  0.728E-02    3.64       0.0  T
   2    -32.0744954 -0.372996E-06  0.424E-02    3.64       1.0  T
   3    -32.0744954 -0.773181E-08  0.298E-03    3.64       6.6  T
   4    -32.0744954 -0.420874E-07  0.134E-03    3.64      14.7  T
   5    -32.0744955 -0.184270E-07  0.588E-04    3.64      33.4  T
   6    -32.0744955 -0.379034E-08  0.255E-04    3.64      77.0  T
   7    -32.0744955 -0.137987E-10  0.727E-05    3.64     269.7  T
   8    -32.0744955 -0.545128E-10  0.146E-05    3.64    1344.1  T
   9    -32.0744955 -0.254374E-11  0.794E-06    3.64    2470.8  T
  10    -32.0744955 -0.646594E-12  0.229E-06    3.64    8573.1  T
     SCC iter.                  ...        0 min,  0.074 sec
     gradient                   ...        0 min,  0.002 sec
 * total energy  :   -31.5546296 Eh     change       -0.2122870E-04 Eh
   gradient norm :     0.0011832 Eh/α   predicted    -0.1543977E-04 ( -27.27%)
   displ. norm   :     0.1775135 α      lambda       -0.1642567E-04
   maximum displ.:     0.1178666 α      in ANC's #1, #3, #5, ...

........................................................................
.............................. CYCLE   31 ..............................
........................................................................

 iter      E             dE          RMSdq      gap      omega  full diag
   1    -32.0744316 -0.320744E+02  0.708E-02    3.65       0.0  T
   2    -32.0744319 -0.341709E-06  0.413E-02    3.65       1.0  T
   3    -32.0744319  0.329714E-07  0.393E-03    3.65       5.0  T
   4    -32.0744320 -0.907941E-07  0.137E-03    3.65      14.3  T
   5    -32.0744320 -0.127497E-07  0.678E-04    3.65      28.9  T
   6    -32.0744320 -0.582555E-08  0.307E-04    3.65      63.9  T
   7    -32.0744320 -0.134662E-09  0.492E-05    3.65     398.6  T
   8    -32.0744320 -0.356266E-10  0.219E-05    3.65     896.3  T
   9    -32.0744320 -0.501643E-11  0.910E-06    3.65    2155.3  T
  10    -32.0744320 -0.262901E-12  0.233E-06    3.65    8415.1  T
     SCC iter.                  ...        0 min,  0.074 sec
     gradient                   ...        0 min,  0.002 sec
 * total energy  :   -31.5546444 Eh     change       -0.1476895E-04 Eh
   gradient norm :     0.0009854 Eh/α   predicted    -0.8330148E-05 ( -43.60%)
   displ. norm   :     0.0557772 α      lambda       -0.6290350E-05
   maximum displ.:     0.0371886 α      in ANC's #1, #3, #6, ...

........................................................................
.............................. CYCLE   32 ..............................
........................................................................

 iter      E             dE          RMSdq      gap      omega  full diag
   1    -32.0751393 -0.320751E+02  0.207E-02    3.65       0.0  T
   2    -32.0751394 -0.813387E-07  0.120E-02    3.65       1.6  T
   3    -32.0751394  0.198249E-08  0.175E-03    3.65      11.2  T
   4    -32.0751394 -0.125998E-07  0.621E-04    3.65      31.6  T
   5    -32.0751394 -0.211622E-08  0.245E-04    3.65      79.9  T
   6    -32.0751394 -0.907569E-09  0.108E-04    3.65     181.0  T
   7    -32.0751394 -0.342766E-10  0.369E-05    3.65     531.7  T
   8    -32.0751394 -0.138556E-11  0.103E-05    3.65    1899.5  T
   9    -32.0751394 -0.157740E-11  0.395E-06    3.65    4967.5  T
  10    -32.0751394 -0.994760E-13  0.216E-06    3.65    9090.5  T
     SCC iter.                  ...        0 min,  0.074 sec
     gradient                   ...        0 min,  0.002 sec
 * total energy  :   -31.5546503 Eh     change       -0.5940496E-05 Eh
   gradient norm :     0.0008024 Eh/α   predicted    -0.3150095E-05 ( -46.97%)
   displ. norm   :     0.0460331 α      lambda       -0.4130768E-05
   maximum displ.:     0.0335342 α      in ANC's #1, #8, #6, ...

........................................................................
.............................. CYCLE   33 ..............................
........................................................................

 iter      E             dE          RMSdq      gap      omega  full diag
   1    -32.0751736 -0.320752E+02  0.174E-02    3.65       0.0  T
   2    -32.0751737 -0.398607E-07  0.100E-02    3.65       2.0  T
   3    -32.0751737 -0.876291E-09  0.109E-03    3.65      18.0  T
   4    -32.0751737 -0.305058E-08  0.492E-04    3.65      39.8  T
   5    -32.0751737 -0.265766E-08  0.132E-04    3.65     148.7  T
   6    -32.0751737 -0.722551E-10  0.628E-05    3.65     312.4  T
   7    -32.0751737 -0.211173E-10  0.216E-05    3.65     907.7  T
   8    -32.0751737  0.220268E-12  0.774E-06    3.65    2532.6  T
   9    -32.0751737 -0.100897E-11  0.211E-06    3.65    9296.7  T
     SCC iter.                  ...        0 min,  0.073 sec
     gradient                   ...        0 min,  0.002 sec
 * total energy  :   -31.5546547 Eh     change       -0.4311327E-05 Eh
   gradient norm :     0.0005672 Eh/α   predicted    -0.2072251E-05 ( -51.93%)
   displ. norm   :     0.0364991 α      lambda       -0.3039735E-05
   maximum displ.:     0.0213889 α      in ANC's #1, #8, #5, ...

........................................................................
.............................. CYCLE   34 ..............................
........................................................................

 iter      E             dE          RMSdq      gap      omega  full diag
   1    -32.0750986 -0.320751E+02  0.118E-02    3.65       0.0  T
   2    -32.0750986 -0.211451E-07  0.681E-03    3.65       2.9  T
   3    -32.0750986 -0.184183E-08  0.721E-04    3.65      27.2  T
   4    -32.0750986 -0.914241E-09  0.310E-04    3.65      63.3  T
   5    -32.0750986 -0.717556E-09  0.108E-04    3.65     182.4  T
   6    -32.0750986 -0.526725E-10  0.572E-05    3.65     342.8  T
   7    -32.0750986 -0.157030E-10  0.239E-05    3.65     821.7  T
   8    -32.0750986 -0.250822E-11  0.442E-06    3.65    4437.7  T
   9    -32.0750986 -0.341061E-12  0.282E-06    3.65    6955.4  T
     SCC iter.                  ...        0 min,  0.074 sec
     gradient                   ...        0 min,  0.002 sec
 * total energy  :   -31.5546579 Eh     change       -0.3200647E-05 Eh
   gradient norm :     0.0004309 Eh/α   predicted    -0.1521546E-05 ( -52.46%)
   displ. norm   :     0.0364648 α      lambda       -0.2155611E-05
   maximum displ.:     0.0231225 α      in ANC's #3, #1, #2, ...

........................................................................
.............................. CYCLE   35 ..............................
........................................................................

 iter      E             dE          RMSdq      gap      omega  full diag
   1    -32.0749779 -0.320750E+02  0.101E-02    3.65       0.0  T
   2    -32.0749779 -0.165135E-07  0.597E-03    3.65       3.3  T
   3    -32.0749779  0.153202E-08  0.802E-04    3.65      24.5  T
   4    -32.0749779 -0.398987E-08  0.301E-04    3.65      65.2  T
   5    -32.0749779 -0.330949E-09  0.934E-05    3.65     209.9  T
   6    -32.0749779 -0.408775E-10  0.454E-05    3.65     432.0  T
   7    -32.0749779 -0.193339E-10  0.149E-05    3.65    1314.2  T
   8    -32.0749779 -0.376588E-12  0.379E-06    3.65    5177.8  T
   9    -32.0749779 -0.497380E-13  0.178E-06    3.65   11007.1  T
     SCC iter.                  ...        0 min,  0.073 sec
     gradient                   ...        0 min,  0.002 sec
 * total energy  :   -31.5546603 Eh     change       -0.2415050E-05 Eh
   gradient norm :     0.0003258 Eh/α   predicted    -0.1082099E-05 ( -55.19%)
   displ. norm   :     0.0383060 α      lambda       -0.1967119E-05
   maximum displ.:     0.0299064 α      in ANC's #3, #1, #2, ...

........................................................................
.............................. CYCLE   36 ..............................
........................................................................

 iter      E             dE          RMSdq      gap      omega  full diag
   1    -32.0748754 -0.320749E+02  0.114E-02    3.65       0.0  T
   2    -32.0748755 -0.740702E-08  0.676E-03    3.65       2.9  T
   3    -32.0748755 -0.129809E-09  0.517E-04    3.65      37.9  T
   4    -32.0748755 -0.186575E-08  0.165E-04    3.65     119.2  T
   5    -32.0748755 -0.653699E-10  0.737E-05    3.65     266.1  T
   6    -32.0748755 -0.448352E-11  0.388E-05    3.65     505.9  T
   7    -32.0748755 -0.135714E-10  0.109E-05    3.65    1803.8  T
   8    -32.0748755 -0.117950E-11  0.345E-06    3.65    5686.9  T
   9    -32.0748755 -0.355271E-13  0.156E-06    3.65   12585.6  T
     SCC iter.                  ...        0 min,  0.073 sec
     gradient                   ...        0 min,  0.002 sec
 * total energy  :   -31.5546626 Eh     change       -0.2291075E-05 Eh
   gradient norm :     0.0002933 Eh/α   predicted    -0.9850563E-06 ( -57.00%)
   displ. norm   :     0.0322080 α      lambda       -0.1850757E-05
   maximum displ.:     0.0231124 α      in ANC's #3, #1, #2, ...

........................................................................
.............................. CYCLE   37 ..............................
........................................................................

 iter      E             dE          RMSdq      gap      omega  full diag
   1    -32.0748234 -0.320748E+02  0.958E-03    3.65       0.0  T
   2    -32.0748235 -0.581451E-08  0.560E-03    3.65       3.5  T
   3    -32.0748235  0.339774E-09  0.400E-04    3.65      49.1  T
   4    -32.0748235 -0.158094E-08  0.200E-04    3.65      98.3  T
   5    -32.0748235 -0.304937E-09  0.900E-05    3.65     217.9  T
   6    -32.0748235 -0.619735E-10  0.341E-05    3.65     574.4  T
   7    -32.0748235 -0.251532E-11  0.119E-05    3.65    1654.6  T
   8    -32.0748235 -0.141398E-11  0.343E-06    3.65    5723.3  T
   9    -32.0748235 -0.127898E-12  0.173E-06    3.65   11346.7  T
     SCC iter.                  ...        0 min,  0.073 sec
     gradient                   ...        0 min,  0.002 sec
 * total energy  :   -31.5546648 Eh     change       -0.2244350E-05 Eh
   gradient norm :     0.0002876 Eh/α   predicted    -0.9287068E-06 ( -58.62%)
   displ. norm   :     0.0410830 α      lambda       -0.2102685E-05
   maximum displ.:     0.0272255 α      in ANC's #3, #1, #5, ...

........................................................................
.............................. CYCLE   38 ..............................
........................................................................

 iter      E             dE          RMSdq      gap      omega  full diag
   1    -32.0748811 -0.320749E+02  0.126E-02    3.65       0.0  T
   2    -32.0748811 -0.978940E-08  0.734E-03    3.65       2.7  T
   3    -32.0748811 -0.289170E-09  0.448E-04    3.65      43.8  T
   4    -32.0748811 -0.106267E-08  0.264E-04    3.65      74.2  T
   5    -32.0748811 -0.114287E-08  0.956E-05    3.65     205.2  T
   6    -32.0748811 -0.154827E-10  0.469E-05    3.65     418.3  T
   7    -32.0748811 -0.122284E-10  0.116E-05    3.65    1684.2  T
   8    -32.0748811 -0.547118E-12  0.478E-06    3.65    4099.5  T
   9    -32.0748811 -0.319744E-12  0.222E-06    3.65    8821.8  T
     SCC iter.                  ...        0 min,  0.073 sec
     gradient                   ...        0 min,  0.002 sec
 * total energy  :   -31.5546672 Eh     change       -0.2411269E-05 Eh
   gradient norm :     0.0003028 Eh/α   predicted    -0.1053696E-05 ( -56.30%)
   displ. norm   :     0.0367368 α      lambda       -0.1435700E-05
   maximum displ.:     0.0252374 α      in ANC's #1, #3, #5, ...

........................................................................
.............................. CYCLE   39 ..............................
........................................................................

 iter      E             dE          RMSdq      gap      omega  full diag
   1    -32.0749561 -0.320750E+02  0.118E-02    3.65       0.0  T
   2    -32.0749561 -0.522956E-08  0.691E-03    3.65       2.8  T
   3    -32.0749561  0.355506E-09  0.402E-04    3.65      48.8  T
   4    -32.0749561 -0.206663E-08  0.201E-04    3.65      97.6  T
   5    -32.0749561 -0.363848E-09  0.832E-05    3.65     235.8  T
   6    -32.0749561 -0.440252E-10  0.285E-05    3.65     688.9  T
   7    -32.0749561 -0.572697E-11  0.885E-06    3.65    2214.9  T
   8    -32.0749561 -0.341061E-12  0.372E-06    3.65    5266.0  T
     SCC iter.                  ...        0 min,  0.073 sec
     gradient                   ...        0 min,  0.002 sec
 * total energy  :   -31.5546688 Eh     change       -0.1611075E-05 Eh
   gradient norm :     0.0002289 Eh/α   predicted    -0.7193007E-06 ( -55.35%)
   displ. norm   :     0.0228033 α      lambda       -0.8589261E-06
   maximum displ.:     0.0185530 α      in ANC's #1, #3, #5, ...

........................................................................
.............................. CYCLE   40 ..............................
........................................................................

 iter      E             dE          RMSdq      gap      omega  full diag
   1    -32.0749810 -0.320750E+02  0.834E-03    3.65       0.0  T
   2    -32.0749810 -0.377356E-08  0.487E-03    3.65       4.0  T
   3    -32.0749810 -0.610285E-10  0.286E-04    3.65      68.6  T
   4    -32.0749810 -0.426866E-09  0.163E-04    3.65     120.7  T
   5    -32.0749810 -0.430120E-09  0.527E-05    3.65     372.0  T
   6    -32.0749810 -0.458300E-11  0.243E-05    3.65     807.3  T
   7    -32.0749810 -0.228084E-11  0.636E-06    3.65    3085.0  T
   8    -32.0749810 -0.198952E-12  0.219E-06    3.65    8968.8  T
     SCC iter.                  ...        0 min,  0.073 sec
     gradient                   ...        0 min,  0.002 sec
 * total energy  :   -31.5546699 Eh     change       -0.1092467E-05 Eh
   gradient norm :     0.0001605 Eh/α   predicted    -0.4331687E-06 ( -60.35%)
   displ. norm   :     0.0194261 α      lambda       -0.8346640E-06
   maximum displ.:     0.0162262 α      in ANC's #1, #2, #3, ...

........................................................................
.............................. CYCLE   41 ..............................
........................................................................

 iter      E             dE          RMSdq      gap      omega  full diag
   1    -32.0750120 -0.320750E+02  0.821E-03    3.66       0.0  T
   2    -32.0750120 -0.312059E-08  0.479E-03    3.66       4.1  T
   3    -32.0750120 -0.702087E-10  0.286E-04    3.66      68.5  T
   4    -32.0750120 -0.422347E-09  0.166E-04    3.66     118.4  T
   5    -32.0750120 -0.444928E-09  0.431E-05    3.66     454.8  T
   6    -32.0750120  0.100187E-11  0.192E-05    3.66    1020.9  T
   7    -32.0750120 -0.363087E-11  0.493E-06    3.66    3979.4  T
   8    -32.0750120 -0.341061E-12  0.143E-06    3.66   13736.5  T
     SCC iter.                  ...        0 min,  0.073 sec
     gradient                   ...        0 min,  0.002 sec
 * total energy  :   -31.5546710 Eh     change       -0.1120777E-05 Eh
   gradient norm :     0.0001603 Eh/α   predicted    -0.4223166E-06 ( -62.32%)
   displ. norm   :     0.0258994 α      lambda       -0.1058085E-05
   maximum displ.:     0.0208680 α      in ANC's #1, #2, #5, ...

........................................................................
.............................. CYCLE   42 ..............................
........................................................................

 iter      E             dE          RMSdq      gap      omega  full diag
   1    -32.0749779 -0.320750E+02  0.114E-02    3.66       0.0  T
   2    -32.0749779 -0.574184E-08  0.665E-03    3.66       2.9  T
   3    -32.0749779 -0.331234E-09  0.358E-04    3.66      54.8  T
   4    -32.0749779 -0.467644E-09  0.203E-04    3.66      96.7  T
   5    -32.0749779 -0.669793E-09  0.562E-05    3.66     348.8  T
   6    -32.0749779 -0.592593E-11  0.242E-05    3.66     809.0  T
   7    -32.0749779 -0.426326E-12  0.767E-06    3.66    2555.8  T
   8    -32.0749779 -0.130029E-11  0.186E-06    3.66   10553.4  T
     SCC iter.                  ...        0 min,  0.073 sec
     gradient                   ...        0 min,  0.004 sec
 * total energy  :   -31.5546724 Eh     change       -0.1397220E-05 Eh
   gradient norm :     0.0002344 Eh/α   predicted    -0.5332371E-06 ( -61.84%)
   displ. norm   :     0.0285410 α      lambda       -0.1021738E-05
   maximum displ.:     0.0219228 α      in ANC's #1, #2, #5, ...
 * RMSD in coord.:     0.3158834 α      energy gain  -0.5119276E-03 Eh

generating ANC from model Hessian ...
Using Lindh-Hessian (1995)
 Shifting diagonal of input Hessian by   9.149166419155214E-003
 Lowest  eigenvalues of input Hessian
    0.000000    0.000000    0.000000    0.000000    0.000000    0.000000
    0.010000    0.010194    0.010765    0.010968    0.011257    0.012878
    0.015509    0.017337    0.017908    0.018876    0.020030    0.024171
 Highest eigenvalues
    1.363868    1.555434    1.572728    1.882123    1.988516    2.004430
 

........................................................................
.............................. CYCLE   43 ..............................
........................................................................

 iter      E             dE          RMSdq      gap      omega  full diag
   1    -32.0749166 -0.320749E+02  0.126E-02    3.66       0.0  T
   2    -32.0749166 -0.688225E-08  0.735E-03    3.66       2.7  T
   3    -32.0749166  0.874039E-10  0.446E-04    3.66      44.0  T
   4    -32.0749166 -0.166819E-08  0.212E-04    3.66      92.6  T
   5    -32.0749166 -0.551736E-09  0.775E-05    3.66     253.2  T
   6    -32.0749166 -0.293454E-10  0.314E-05    3.66     625.1  T
   7    -32.0749166 -0.440536E-12  0.839E-06    3.66    2338.6  T
   8    -32.0749166 -0.142819E-11  0.256E-06    3.66    7649.1  T
     SCC iter.                  ...        0 min,  0.073 sec
     gradient                   ...        0 min,  0.002 sec
 * total energy  :   -31.5546737 Eh     change       -0.1256656E-05 Eh
   gradient norm :     0.0002347 Eh/α   predicted     0.0000000E+00 (-100.00%)
   displ. norm   :     0.0071936 α      lambda       -0.5120471E-07
   maximum displ.:     0.0065617 α      in ANC's #1, #4, #6, ...

........................................................................
.............................. CYCLE   44 ..............................
........................................................................

 iter      E             dE          RMSdq      gap      omega  full diag
   1    -32.0749661 -0.320750E+02  0.352E-03    3.66       0.0  T
   2    -32.0749661 -0.138463E-08  0.204E-03    3.66       9.6  T
   3    -32.0749661 -0.272351E-10  0.185E-04    3.66     106.2  T
   4    -32.0749661 -0.961364E-10  0.753E-05    3.66     260.5  T
   5    -32.0749661 -0.770868E-10  0.298E-05    3.66     658.0  T
   6    -32.0749661 -0.859757E-11  0.139E-05    3.66    1413.2  T
   7    -32.0749661 -0.795808E-12  0.444E-06    3.66    4420.7  T
   8    -32.0749661 -0.497380E-13  0.119E-06    3.66   16500.5  T
     SCC iter.                  ...        0 min,  0.073 sec
     gradient                   ...        0 min,  0.002 sec
 * total energy  :   -31.5546741 Eh     change       -0.4069558E-06 Eh
   gradient norm :     0.0001029 Eh/α   predicted    -0.1725499E-06 ( -57.60%)
   displ. norm   :     0.0102984 α      lambda       -0.3418211E-06
   maximum displ.:     0.0090402 α      in ANC's #1, #4, #6, ...

........................................................................
.............................. CYCLE   45 ..............................
........................................................................

 iter      E             dE          RMSdq      gap      omega  full diag
   1    -32.0749848 -0.320750E+02  0.452E-03    3.66       0.0  T
   2    -32.0749848 -0.137200E-08  0.263E-03    3.66       7.5  T
   3    -32.0749848  0.129212E-09  0.258E-04    3.66      76.0  T
   4    -32.0749848 -0.409727E-09  0.933E-05    3.66     210.3  T
   5    -32.0749848 -0.278959E-10  0.494E-05    3.66     397.0  T
   6    -32.0749848 -0.263825E-10  0.160E-05    3.66    1224.4  T
   7    -32.0749848 -0.312639E-12  0.376E-06    3.66    5214.1  T
   8    -32.0749848 -0.156319E-12  0.146E-06    3.66   13395.8  T
     SCC iter.                  ...        0 min,  0.073 sec
     gradient                   ...        0 min,  0.002 sec
 * total energy  :   -31.5546746 Eh     change       -0.4464098E-06 Eh
   gradient norm :     0.0001407 Eh/α   predicted    -0.1714206E-06 ( -61.60%)
   displ. norm   :     0.0112569 α      lambda       -0.3164253E-06
   maximum displ.:     0.0097380 α      in ANC's #1, #6, #3, ...

........................................................................
.............................. CYCLE   46 ..............................
........................................................................

 iter      E             dE          RMSdq      gap      omega  full diag
   1    -32.0749812 -0.320750E+02  0.485E-03    3.66       0.0  T
   2    -32.0749812 -0.127365E-08  0.283E-03    3.66       6.9  T
   3    -32.0749812  0.810090E-10  0.212E-04    3.66      92.6  T
   4    -32.0749812 -0.322913E-09  0.867E-05    3.66     226.1  T
   5    -32.0749812 -0.708198E-10  0.427E-05    3.66     458.8  T
   6    -32.0749812 -0.178630E-10  0.191E-05    3.66    1027.2  T
   7    -32.0749812 -0.284217E-13  0.433E-06    3.66    4525.2  T
   8    -32.0749812 -0.362377E-12  0.135E-06    3.66   14554.5  T
     SCC iter.                  ...        0 min,  0.073 sec
     gradient                   ...        0 min,  0.002 sec
 * total energy  :   -31.5546750 Eh     change       -0.4448360E-06 Eh
   gradient norm :     0.0001550 Eh/α   predicted    -0.1621507E-06 ( -63.55%)
   displ. norm   :     0.0112188 α      lambda       -0.3098579E-06
   maximum displ.:     0.0097094 α      in ANC's #1, #3, #6, ...

........................................................................
.............................. CYCLE   47 ..............................
........................................................................

 iter      E             dE          RMSdq      gap      omega  full diag
   1    -32.0749643 -0.320750E+02  0.486E-03    3.66       0.0  T
   2    -32.0749643 -0.136578E-08  0.283E-03    3.66       6.9  T
   3    -32.0749643  0.186205E-09  0.233E-04    3.66      84.1  T
   4    -32.0749643 -0.359414E-09  0.113E-04    3.66     174.1  T
   5    -32.0749643 -0.188692E-09  0.309E-05    3.66     635.1  T
   6    -32.0749643 -0.593303E-11  0.155E-05    3.66    1262.5  T
   7    -32.0749643 -0.305533E-12  0.449E-06    3.66    4365.3  T
   8    -32.0749643 -0.312639E-12  0.151E-06    3.66   12952.9  T
     SCC iter.                  ...        0 min,  0.073 sec
     gradient                   ...        0 min,  0.002 sec
 * total energy  :   -31.5546754 Eh     change       -0.4304076E-06 Eh
   gradient norm :     0.0001184 Eh/α   predicted    -0.1564890E-06 ( -63.64%)
   displ. norm   :     0.0110793 α      lambda       -0.2899605E-06
   maximum displ.:     0.0096317 α      in ANC's #1, #3, #6, ...

........................................................................
.............................. CYCLE   48 ..............................
........................................................................

 iter      E             dE          RMSdq      gap      omega  full diag
   1    -32.0749587 -0.320750E+02  0.483E-03    3.66       0.0  T
   2    -32.0749587 -0.125429E-08  0.281E-03    3.66       7.0  T
   3    -32.0749587 -0.344613E-11  0.187E-04    3.66     105.1  T
   4    -32.0749587 -0.155779E-09  0.995E-05    3.66     197.1  T
[...]
         :: total charge              -0.000000000000 e     ::
         :::::::::::::::::::::::::::::::::::::::::::::::::::::

           ------------------------------------------------- 
          |                Numerical Hessian                |
           ------------------------------------------------- 
step length          :   0.00500
SCC accuracy         :   0.30000
Hessian scale factor :   1.00000
frozen atoms in %    :   0.00000    0
RMS gradient         :   0.00002
estimated CPU  time      1.13 min
estimated wall time      0.14 min

writing file <hessian>.

 projected vibrational frequencies (cm⁻¹)
eigval :       -0.00    -0.00    -0.00     0.00     0.00     0.00
eigval :       31.24    72.74    79.54    98.35   120.36   177.30
eigval :      204.45   217.64   244.68   265.35   271.81   326.12
eigval :      363.04   441.72   455.74   585.97   655.82   660.34
eigval :      686.28   702.74   734.07   741.05   789.12   875.12
eigval :      899.27   927.02   932.52   969.48   971.42  1010.22
eigval :     1014.73  1018.08  1071.14  1073.69  1083.06  1118.30
eigval :     1120.54  1181.61  1198.56  1222.56  1231.59  1252.22
eigval :     1255.33  1278.15  1315.33  1408.14  1411.35  1423.66
eigval :     1444.35  1451.27  1457.58  1494.74  1497.78  1502.79
eigval :     1507.74  1579.73  1589.46  2925.66  2935.76  2945.69
eigval :     2949.88  3011.80  3012.70  3025.93  3028.51  3033.11
eigval :     3036.46  3063.84  3065.77  3074.04  3079.02  3088.16
           -------------------------------------------------
          |                Property Printout                |
           -------------------------------------------------

    * Orbital Energies and Occupations

         #    Occupation            Energy/Eh            Energy/eV
      -------------------------------------------------------------
         1        2.0000           -0.6576874             -17.8966
       ...           ...                  ...                  ...
        18        2.0000           -0.4779081             -13.0045
        19        2.0000           -0.4773950             -12.9906
        20        2.0000           -0.4630688             -12.6007
        21        2.0000           -0.4599646             -12.5163
        22        2.0000           -0.4523008             -12.3077
        23        2.0000           -0.4460025             -12.1363
        24        2.0000           -0.4392680             -11.9531
        25        2.0000           -0.4231044             -11.5133
        26        2.0000           -0.4166003             -11.3363
        27        2.0000           -0.4045322             -11.0079
        28        2.0000           -0.4039687             -10.9925
        29        2.0000           -0.3967036             -10.7949
        30        2.0000           -0.3669449              -9.9851 (HOMO)
        31                         -0.2324911              -6.3264 (LUMO)
        32                         -0.2227841              -6.0623
        33                         -0.1602238              -4.3599
        34                         -0.1501768              -4.0865
        35                         -0.0927979              -2.5252
        36                         -0.0067800              -0.1845
        37                          0.0722863               1.9670
        38                          0.0834610               2.2711
        39                          0.1007163               2.7406
        40                          0.1342175               3.6522
        41                          0.1402192               3.8156
       ...                                ...                  ...
        64                          0.7800987              21.2276
      -------------------------------------------------------------
                  HL-Gap            0.1344539 Eh            3.6587 eV
             Fermi-level           -0.2997180 Eh           -8.1557 eV

     #   Z          covCN         q      C6AA      α(0)
     1  15 P        3.036    -0.109   165.200    23.090
     2   6 C        3.747    -0.045    21.452     6.606
     3   1 H        0.925     0.042     2.422     2.434
     4   1 H        0.926     0.038     2.474     2.460
     5   6 C        3.805    -0.096    22.328     6.727
     6   1 H        0.925     0.038     2.476     2.461
     7   1 H        0.925     0.041     2.435     2.440
     8   1 H        0.925     0.032     2.553     2.499
     9   6 C        2.916     0.004    27.935     8.667
    10   6 C        2.963    -0.031    28.761     8.797
    11   6 C        3.013    -0.031    28.749     8.795
    12   6 C        2.919    -0.031    28.769     8.796
    13   6 C        2.918    -0.029    28.736     8.791
    14   6 C        2.920    -0.029    28.734     8.790
    15   1 H        0.926     0.033     2.548     2.496
    16   1 H        0.925     0.039     2.464     2.455
    17   1 H        0.926     0.029     2.604     2.524
    18   1 H        0.926     0.031     2.576     2.510
    19   1 H        0.926     0.030     2.591     2.517
    20   6 C        3.747    -0.047    21.487     6.612
    21   1 H        0.925     0.040     2.448     2.447
    22   1 H        0.925     0.041     2.433     2.439
    23   6 C        3.818    -0.098    22.358     6.730
    24   1 H        0.925     0.041     2.436     2.441
    25   1 H        0.925     0.038     2.471     2.458
    26   1 H        0.925     0.031     2.579     2.511

 Mol. C6AA /au·bohr⁶  :       7598.842003
 Mol. C8AA /au·bohr⁸  :     202565.631366
 Mol. α(0) /au        :        139.490058


Wiberg/Mayer (AO) data.
largest (>0.10) Wiberg bond orders for each atom

 ---------------------------------------------------------------------------
     #   Z sym  total        # sym  WBO       # sym  WBO       # sym  WBO
 ---------------------------------------------------------------------------
     1  15 P    3.335 --    20 C    1.025     2 C    1.020     9 C    1.007
     2   6 C    3.995 --     1 P    1.020     5 C    1.017     4 H    0.959
                             3 H    0.952
     3   1 H    0.998 --     2 C    0.952
     4   1 H    0.998 --     2 C    0.959
     5   6 C    3.996 --     2 C    1.017     7 H    0.985     8 H    0.984
                             6 H    0.983
     6   1 H    0.999 --     5 C    0.983
     7   1 H    0.998 --     5 C    0.985
     8   1 H    0.998 --     5 C    0.984
     9   6 C    3.983 --    11 C    1.408    10 C    1.400     1 P    1.007
                            14 C    0.108
    10   6 C    3.992 --    12 C    1.449     9 C    1.400    15 H    0.963
                            13 C    0.110
    11   6 C    3.991 --    13 C    1.443     9 C    1.408    16 H    0.965
                            12 C    0.109
    12   6 C    3.993 --    10 C    1.449    14 C    1.433    17 H    0.970
                            11 C    0.109
    13   6 C    3.992 --    11 C    1.443    14 C    1.440    18 H    0.970
                            10 C    0.110
    14   6 C    3.990 --    13 C    1.440    12 C    1.433    19 H    0.971
                             9 C    0.108
    15   1 H    0.999 --    10 C    0.963
    16   1 H    0.998 --    11 C    0.965
    17   1 H    0.999 --    12 C    0.970
    18   1 H    0.999 --    13 C    0.970
    19   1 H    0.998 --    14 C    0.971
    20   6 C    3.995 --     1 P    1.025    23 C    1.016    21 H    0.959
                            22 H    0.954
    21   1 H    0.998 --    20 C    0.959
    22   1 H    0.998 --    20 C    0.954
    23   6 C    3.996 --    20 C    1.016    24 H    0.985    26 H    0.985
                            25 H    0.983
    24   1 H    0.998 --    23 C    0.985
    25   1 H    0.999 --    23 C    0.983
    26   1 H    0.999 --    23 C    0.985
 ---------------------------------------------------------------------------

Topologies differ in total number of bonds
Writing topology from bond orders to xtbtopo.mol

molecular dipole:
                 x           y           z       tot (Debye)
 q only:        0.219       0.074       0.128
   full:        0.602      -0.040       0.213       1.626
molecular quadrupole (traceless):
                xx          xy          yy          xz          yz          zz
 q only:        1.565      -0.193       0.078      -0.887       0.120      -1.643
  q+dip:        4.529      -2.780      -0.814      -1.479       2.273      -3.715
   full:        3.503      -1.406      -0.075      -3.351       1.393      -3.427

           -------------------------------------------------
          |                Geometry Summary                 |
           -------------------------------------------------

      molecular mass/u    :      166.2002322
   center of mass at/Å    :        2.2017162      -1.3385392      -3.3626687
  moments of inertia/u·Å² :        0.2864797E+03   0.9264300E+03   0.9945228E+03
rotational constants/cm⁻¹ :        0.5884407E-01   0.1819634E-01   0.1695047E-01

 * 23 selected distances

     #   Z          #   Z                                           value/Å
     2   6 C        3   1 H                                       1.0941937
     2   6 C        4   1 H                                       1.0942019
     2   6 C        5   6 C                                       1.5218471
     5   6 C        6   1 H                                       1.0878856
     5   6 C        7   1 H                                       1.0883227
     5   6 C        8   1 H                                       1.0890593
     9   6 C       10   6 C                                       1.3903024
     9   6 C       11   6 C                                       1.3903078
    10   6 C       12   6 C                                       1.3828836
    11   6 C       13   6 C                                       1.3832596
    12   6 C       14   6 C                                       1.3852060
    13   6 C       14   6 C                                       1.3842942
    10   6 C       15   1 H                                       1.0805733
    11   6 C       16   1 H                                       1.0813298
    12   6 C       17   1 H                                       1.0809330
    13   6 C       18   1 H                                       1.0805048
    14   6 C       19   1 H                                       1.0802904 (min)
    20   6 C       21   1 H                                       1.0933828
    20   6 C       22   1 H                                       1.0932667
    20   6 C       23   6 C                                       1.5247946 (max)
    23   6 C       24   1 H                                       1.0879474
    23   6 C       25   1 H                                       1.0878102
    23   6 C       26   1 H                                       1.0891364

 * 2 distinct bonds (by element types)

   Z      Z             #   av. dist./Å        max./Å        min./Å
   1 H    6 C          15     1.0872559     1.0942019     1.0802904
   6 C    6 C           8     1.4203619     1.5247946     1.3828836

           -------------------------------------------------
          |               Frequency Printout                |
           -------------------------------------------------
 projected vibrational frequencies (cm⁻¹)
eigval :       -0.00    -0.00    -0.00     0.00     0.00     0.00
eigval :       31.24    72.74    79.54    98.35   120.36   177.30
eigval :      204.45   217.64   244.68   265.35   271.81   326.12
eigval :      363.04   441.72   455.74   585.97   655.82   660.34
eigval :      686.28   702.74   734.07   741.05   789.12   875.12
eigval :      899.27   927.02   932.52   969.48   971.42  1010.22
eigval :     1014.73  1018.08  1071.14  1073.69  1083.06  1118.30
eigval :     1120.54  1181.61  1198.56  1222.56  1231.59  1252.22
eigval :     1255.33  1278.15  1315.33  1408.14  1411.35  1423.66
eigval :     1444.35  1451.27  1457.58  1494.74  1497.78  1502.79
eigval :     1507.74  1579.73  1589.46  2925.66  2935.76  2945.69
eigval :     2949.88  3011.80  3012.70  3025.93  3028.51  3033.11
eigval :     3036.46  3063.84  3065.77  3074.04  3079.02  3088.16
 reduced masses (amu)
   1: 15.23   2: 12.98   3: 12.43   4: 13.67   5: 11.61   6: 10.27   7: 10.90   8: 10.33
   9:  8.88  10:  7.14  11: 10.51  12:  3.68  13:  8.64  14:  6.14  15: 10.32  16: 10.12
  17: 10.09  18: 12.96  19:  8.84  20: 17.95  21: 13.83  22: 11.17  23: 13.22  24: 11.28
  25: 13.67  26: 15.59  27:  3.17  28:  4.54  29:  4.57  30:  3.29  31:  3.55  32:  4.19
  33:  2.99  34:  9.22  35:  4.24  36:  3.50  37:  4.04  38:  3.43  39:  9.53  40:  9.60
  41:  7.94  42:  5.56  43:  7.49  44:  1.34  45:  1.93  46:  3.54  47:  3.35  48:  4.20
  49:  4.23  50:  3.37  51: 11.96  52:  2.97  53:  2.90  54:  8.62  55:  2.47  56:  1.98
  57:  7.93  58:  1.53  59:  1.55  60:  1.55  61:  1.55  62: 11.46  63: 11.45  64:  1.89
  65:  1.79  66:  1.60  67:  1.66  68:  1.86  69:  1.82  70:  1.92  71:  1.92  72:  1.39
  73:  1.39  74:  1.78  75:  1.76  76:  1.82  77:  1.87  78:  1.92
 IR intensities (km·mol⁻¹)
   1:  0.12   2:  0.03   3:  0.03   4:  0.11   5:  0.01   6:  0.24   7:  0.26   8:  0.07
   9:  0.14  10:  0.31  11:  0.17  12:  0.10  13:  0.05  14:  0.03  15:  0.12  16:  0.76
  17:  0.02  18:  0.25  19:  0.05  20:  7.24  21:  7.78  22:  0.05  23:  5.88  24:  3.39
  25:  5.24  26: 52.51  27: 13.02  28:  3.93  29: 21.55  30:  0.11  31:  0.02  32:  0.08
  33:  0.00  34:  1.40  35:  2.15  36:  0.77  37:  0.90  38:  7.11  39:  2.17  40:  4.07
  41:  0.01  42:  0.92  43:  4.64  44:  0.02  45:  0.56  46:  0.99  47:  2.34  48:  8.32
  49:  5.91  50:  0.96  51:  0.71  52:  0.93  53:  2.13  54:  1.29  55:  0.84  56:  0.73
  57:  0.36  58:  0.54  59:  4.49  60:  1.43  61:  1.93  62:  0.32  63:  1.05  64: 14.11
  65: 28.19  66: 17.20  67: 17.44  68: 71.23  69: 36.06  70: 29.21  71: 29.23  72: 19.36
  73: 23.12  74: 12.36  75:  4.18  76: 13.56  77: 85.55  78: 58.88
 Raman intensities (Ä⁴*amu⁻¹)
   1:  0.00   2:  0.00   3:  0.00   4:  0.00   5:  0.00   6:  0.00   7:  0.00   8:  0.00
   9:  0.00  10:  0.00  11:  0.00  12:  0.00  13:  0.00  14:  0.00  15:  0.00  16:  0.00
  17:  0.00  18:  0.00  19:  0.00  20:  0.00  21:  0.00  22:  0.00  23:  0.00  24:  0.00
  25:  0.00  26:  0.00  27:  0.00  28:  0.00  29:  0.00  30:  0.00  31:  0.00  32:  0.00
  33:  0.00  34:  0.00  35:  0.00  36:  0.00  37:  0.00  38:  0.00  39:  0.00  40:  0.00
  41:  0.00  42:  0.00  43:  0.00  44:  0.00  45:  0.00  46:  0.00  47:  0.00  48:  0.00
  49:  0.00  50:  0.00  51:  0.00  52:  0.00  53:  0.00  54:  0.00  55:  0.00  56:  0.00
  57:  0.00  58:  0.00  59:  0.00  60:  0.00  61:  0.00  62:  0.00  63:  0.00  64:  0.00
  65:  0.00  66:  0.00  67:  0.00  68:  0.00  69:  0.00  70:  0.00  71:  0.00  72:  0.00
  73:  0.00  74:  0.00  75:  0.00  76:  0.00  77:  0.00  78:  0.00
 output can be read by thermo (or use thermo option).
 writing <g98.out> molden fake output.
 recommended (thermochemical) frequency scaling factor: 1.0
           -------------------------------------------------
          |             Thermodynamic Functions             |
           -------------------------------------------------

Refinement of some symmetry elements was terminated before convergence was reached.
Some symmetry elements may remain unidentified.
Molecule has no symmetry elements
It seems to be the C1 point group
c1  symmetry found (for desy threshold:  0.10E+00) used in thermo

          ...................................................
          :                      SETUP                      :
          :.................................................:
          :  # frequencies                          72      :
          :  # imaginary freq.                       0      :
          :  linear?                             false      :
          :  only rotor calc.                    false      :
          :  symmetry                               c1      :
          :  rotational number                       1      :
          :  scaling factor                  1.0000000      :
          :  rotor cutoff                   50.0000000 cm⁻¹ :
          :  imag. cutoff                  -20.0000000 cm⁻¹ :
          :.................................................:

    mode    ω/cm⁻¹     T·S(HO)/kcal·mol⁻¹    T·S(FR)/kcal·mol⁻¹   T·S(vib)
   ------------------------------------------------------------------------
       1     31.24    -1.71412 ( 13.22%)    -1.19568 ( 86.78%)    -1.26422
       2     72.74    -1.21578 ( 81.75%)    -0.94540 ( 18.25%)    -1.16644
       3     79.54    -1.16347 ( 86.49%)    -0.91896 ( 13.51%)    -1.13044
       4     98.35    -1.03959 ( 93.74%)    -0.85608 (  6.26%)    -1.02810
       5    120.36    -0.92263 ( 97.11%)    -0.79625 (  2.89%)    -0.91898
       6    177.30    -0.70265 ( 99.37%)    -0.68153 (  0.63%)    -0.70252
       7    204.45    -0.62394 ( 99.64%)    -0.63932 (  0.36%)    -0.62399
       8    217.64    -0.58993 ( 99.72%)    -0.62080 (  0.28%)    -0.59001
       9    244.68    -0.52731 ( 99.83%)    -0.58611 (  0.17%)    -0.52741
      10    265.35    -0.48489 ( 99.87%)    -0.56209 (  0.13%)    -0.48499
      11    271.81    -0.47246 ( 99.89%)    -0.55496 (  0.11%)    -0.47256
   ------------------------------------------------------------------------

   temp. (K)  partition function   enthalpy   heat capacity  entropy
                                   cal/mol     cal/K/mol   cal/K/mol   J/K/mol
 298.15  VIB  0.161E+05             6200.633     39.650     38.217
         ROT  0.124E+07              888.752      2.981     30.865
         INT  0.200E+11             7089.385     42.631     69.082
         TR   0.207E+28             1481.254      4.968     41.214
         TOT                        8570.6394    47.5990   110.2960   461.4785

       T/K    H(0)-H(T)+PV         H(T)/Eh          T*S/Eh         G(T)/Eh
   ------------------------------------------------------------------------
    298.15    0.136582E-01    0.232340E+00    0.524052E-01    0.179935E+00
   ------------------------------------------------------------------------

         :::::::::::::::::::::::::::::::::::::::::::::::::::::
         ::                  THERMODYNAMIC                  ::
         :::::::::::::::::::::::::::::::::::::::::::::::::::::
         :: total free energy         -31.374744160905 Eh   ::
         ::.................................................::
         :: total energy              -31.554679257507 Eh   ::
         :: zero point energy           0.218682108084 Eh   ::
         :: G(RRHO) w/o ZPVE           -0.038747011481 Eh   ::
         :: G(RRHO) contrib.            0.179935096603 Eh   ::
         :::::::::::::::::::::::::::::::::::::::::::::::::::::

optimized geometry written to: xtbopt.xyz


           -------------------------------------------------
          | TOTAL ENERGY              -31.554679257507 Eh   |
          | TOTAL ENTHALPY            -31.322338966141 Eh   |
          | TOTAL FREE ENERGY         -31.374744160905 Eh   |
          | GRADIENT NORM               0.000023665884 Eh/α |
          | HOMO-LUMO GAP               3.658675504970 eV   |
           -------------------------------------------------

------------------------------------------------------------------------
 * finished run on 2025/07/14 at 11:28:26.000     
------------------------------------------------------------------------
 total:
 * wall-time:     0 d,  0 h,  0 min,  8.676 sec
 *  cpu-time:     0 d,  0 h,  1 min, 30.947 sec
 * ratio c/w:    10.483 speedup
 SCF:
 * wall-time:     0 d,  0 h,  0 min,  0.087 sec
 *  cpu-time:     0 d,  0 h,  0 min,  1.045 sec
 * ratio c/w:    11.973 speedup
 ANC optimizer:
 * wall-time:     0 d,  0 h,  0 min,  5.276 sec
 *  cpu-time:     0 d,  0 h,  1 min,  3.212 sec
 * ratio c/w:    11.981 speedup
 analytical hessian:
 * wall-time:     0 d,  0 h,  0 min,  3.303 sec
 *  cpu-time:     0 d,  0 h,  0 min, 26.591 sec
 * ratio c/w:     8.051 speedup

