      -----------------------------------------------------------      
     |                   =====================                   |     
     |                           x T B                           |     
     |                   =====================                   |     
     |                         S. Grimme                         |     
     |          Mulliken Center for Theoretical Chemistry        |     
     |                    University of Bonn                     |     
      -----------------------------------------------------------      

   * xtb version 6.7.0 (08769fc) compiled by 'albert@albert-system' on 2024-03-04

   xtb is free software: you can redistribute it and/or modify it under
   the terms of the GNU Lesser General Public License as published by
   the Free Software Foundation, either version 3 of the License, or
   (at your option) any later version.
   
   xtb is distributed in the hope that it will be useful,
   but WITHOUT ANY WARRANTY; without even the implied warranty of
   MERCHANTABILITY or FITNESS FOR A PARTICULAR PURPOSE.  See the
   GNU Lesser General Public License for more details.
   
   Cite this work as:
   * C. Bannwarth, E. Caldeweyher, S. Ehlert, A. Hansen, P. Pracht,
     J. Seibert, S. Spicher, S. Grimme, WIREs Comput. Mol. Sci., 2020, 11,
     e01493. DOI: 10.1002/wcms.1493
   
   for GFN2-xTB:
   * C. Bannwarth, S. Ehlert and S. Grimme., J. Chem. Theory Comput., 2019,
     15, 1652-1671. DOI: 10.1021/acs.jctc.8b01176
   for GFN1-xTB:
   * S. Grimme, C. Bannwarth, P. Shushkov, J. Chem. Theory Comput., 2017,
     13, 1989-2009. DOI: 10.1021/acs.jctc.7b00118
   for GFN0-xTB:
   * P. Pracht, E. Caldeweyher, S. Ehlert, S. Grimme, ChemRxiv, 2019, preprint.
     DOI: 10.26434/chemrxiv.8326202.v1
   for GFN-FF:
   * S. Spicher and S. Grimme, Angew. Chem. Int. Ed., 2020, 59, 15665-15673.
     DOI: 10.1002/anie.202004239
   
   for ALPB and GBSA implicit solvation:
   * S. Ehlert, M. Stahn, S. Spicher, S. Grimme, J. Chem. Theory Comput.,
     2021, 17, 4250-4261. DOI: 10.1021/acs.jctc.1c00471
   
   for ddCOSMO and CPCM-X implicit solvation:
   * M. Stahn, S. Ehlert, S. Grimme, J. Phys. Chem. A,
     2023, XX, XXXX-XXXX. DOI: 10.1021/acs.jpca.3c04382
   
   for DFT-D4:
   * E. Caldeweyher, C. Bannwarth and S. Grimme, J. Chem. Phys., 2017,
     147, 034112. DOI: 10.1063/1.4993215
   * E. Caldeweyher, S. Ehlert, A. Hansen, H. Neugebauer, S. Spicher,
     C. Bannwarth and S. Grimme, J. Chem. Phys., 2019, 150, 154122.
     DOI: 10.1063/1.5090222
   * E. Caldeweyher, J.-M. Mewes, S. Ehlert and S. Grimme, Phys. Chem. Chem. Phys.
     2020, 22, 8499-8512. DOI: 10.1039/D0CP00502A
   
   for sTDA-xTB:
   * S. Grimme and C. Bannwarth, J. Chem. Phys., 2016, 145, 054103.
     DOI: 10.1063/1.4959605
   
   in the mass-spec context:
   * V. Asgeirsson, C. Bauer and S. Grimme, Chem. Sci., 2017, 8, 4879.
     DOI: 10.1039/c7sc00601b
   * J. Koopman and S. Grimme, ACS Omega 2019, 4, 12, 15120-15133.
     DOI: 10.1021/acsomega.9b02011
   
   for metadynamics refer to:
   * S. Grimme, J. Chem. Theory Comput., 2019, 155, 2847-2862
     DOI: 10.1021/acs.jctc.9b00143
   
   for SPH calculations refer to:
   * S. Spicher and S. Grimme, J. Chem. Theory Comput., 2021, 17, 1701-1714
     DOI: 10.1021/acs.jctc.0c01306
   
   for ONIOM refer to:
   * C. Plett, A. Katbashev, S. Ehlert, S. Grimme, M. Bursch,
     Phys. Chem. Chem. Phys., 2023, 25, 17860-17868. DOI: 10.1039/D3CP02178E
   
   for DIPRO refer to:
   * J. Kohn, N. Gildemeister, S. Grimme, D. Fazzi, A. Hansen,
     J. Chem. Phys., 2023, just accepted.
   
   for PTB refer to:
   * S. Grimme, M. Mueller, A. Hansen, J. Chem. Phys., 2023, 158, 124111.
     DOI: 10.1063/5.0137838
   
   with help from (in alphabetical order)
   P. Atkinson, C. Bannwarth, F. Bohle, G. Brandenburg, E. Caldeweyher
   M. Checinski, S. Dohm, S. Ehlert, S. Ehrlich, I. Gerasimov, C. Hölzer
   A. Katbashev, J. Kohn, J. Koopman, C. Lavigne, S. Lehtola, F. März, M. Müller,
   F. Musil, H. Neugebauer, J. Pisarek, C. Plett, P. Pracht, F. Pultar,
   J. Seibert, P. Shushkov, S. Spicher, M. Stahn, M. Steiner, T. Strunk,
   J. Stückrath, T. Rose, and J. Unsleber
   
 * started run on 2025/07/14 at 11:33:58.867     
   ID    Z sym.   atoms
    1   15 P      1
    2    6 C      2, 5, 9-14, 20, 23
    3    1 H      3, 4, 6-8, 15-19, 21, 22, 24-26

           -------------------------------------------------
          |                Calculation Setup                |
           -------------------------------------------------

          program call               : /home/minenky/programs/xtb/xtb-dist/bin/xtb m1_00_PEt2Ph-PBE0-D3-TZ-uniMM_50.xyz --charge 0 --T --ohess extreme --cycles 5000 --acc 0.01 --iterations 5000
          coordinate file            : m1_00_PEt2Ph-PBE0-D3-TZ-uniMM_50.xyz
          omp threads                :                    12

########################################################################
[WARNING] Please study the warnings concerning your input carefully
-1- prog_main_parseArguments: Unknown option '--T' provided
########################################################################

           -------------------------------------------------
          |                 G F N 2 - x T B                 |
           -------------------------------------------------

        Reference                      10.1021/acs.jctc.8b01176
      * Hamiltonian:
        H0-scaling (s, p, d)           1.850000    2.230000    2.230000
        zeta-weighting                 0.500000
      * Dispersion:
        s8                             2.700000
        a1                             0.520000
        a2                             5.000000
        s9                             5.000000
      * Repulsion:
        kExp                           1.500000    1.000000
        rExp                           1.000000
      * Coulomb:
        alpha                          2.000000
        third order                    shell-resolved
        anisotropic                    true
        a3                             3.000000
        a5                             4.000000
        cn-shift                       1.200000
        cn-exp                         4.000000
        max-rad                        5.000000


          ...................................................
          :                      SETUP                      :
          :.................................................:
          :  # basis functions                  65          :
          :  # atomic orbitals                  64          :
          :  # shells                           38          :
          :  # electrons                        60          :
          :  max. iterations                  5000          :
          :  Hamiltonian                  GFN2-xTB          :
          :  restarted?                      false          :
          :  GBSA solvation                  false          :
          :  PC potential                    false          :
          :  electronic temp.          300.0000000     K    :
          :  accuracy                    0.0100000          :
          :  -> integral cutoff          0.4500000E+02      :
          :  -> integral neglect         0.1000000E-09      :
          :  -> SCF convergence          0.1000000E-07 Eh   :
          :  -> wf. convergence          0.1000000E-05 e    :
          :  Broyden damping             0.4000000          :
          :  net charge                          0          :
          :  unpaired electrons                  0          :
          ...................................................

 iter      E             dE          RMSdq      gap      omega  full diag
   1    -32.0080214 -0.320080E+02  0.357E+00    3.97       0.0  T
   2    -32.0516780 -0.436566E-01  0.216E+00    3.54       1.0  T
   3    -32.0518739 -0.195860E-03  0.819E-01    3.30       1.0  T
   4    -32.0527487 -0.874884E-03  0.271E-01    3.33       1.0  T
   5    -32.0536659 -0.917166E-03  0.123E-01    3.37       1.0  T
   6    -32.0538820 -0.216132E-03  0.424E-02    3.36       1.0  T
   7    -32.0538992 -0.171773E-04  0.149E-02    3.36       1.3  T
   8    -32.0538998 -0.595577E-06  0.686E-03    3.36       2.9  T
   9    -32.0539003 -0.482500E-06  0.153E-03    3.36      12.8  T
  10    -32.0539003 -0.284828E-07  0.616E-04    3.36      31.8  T
  11    -32.0539003 -0.207834E-10  0.245E-04    3.36      80.0  T
  12    -32.0539003 -0.719837E-09  0.652E-05    3.36     300.6  T
  13    -32.0539003 -0.107931E-10  0.227E-05    3.36     864.9  T
  14    -32.0539003 -0.106581E-11  0.118E-05    3.36    1659.1  T
  15    -32.0539003 -0.188294E-11  0.289E-06    3.36    6776.3  T
  16    -32.0539003 -0.213163E-13  0.146E-06    3.36   13411.8  T

   *** convergence criteria satisfied after 16 iterations ***

         #    Occupation            Energy/Eh            Energy/eV
      -------------------------------------------------------------
         1        2.0000           -0.6608287             -17.9821
       ...           ...                  ...                  ...
        24        2.0000           -0.4427661             -12.0483
        25        2.0000           -0.4238590             -11.5338
        26        2.0000           -0.4138127             -11.2604
        27        2.0000           -0.4096838             -11.1481
        28        2.0000           -0.4021541             -10.9432
        29        2.0000           -0.4014679             -10.9245
        30        2.0000           -0.3545517              -9.6478 (HOMO)
        31                         -0.2310677              -6.2877 (LUMO)
        32                         -0.2223086              -6.0493
        33                         -0.1543627              -4.2004
        34                         -0.1401964              -3.8149
        35                         -0.0963032              -2.6205
       ...                                ...                  ...
        64                          0.7771284              21.1467
      -------------------------------------------------------------
                  HL-Gap            0.1234840 Eh            3.3602 eV
             Fermi-level           -0.2928097 Eh           -7.9678 eV

 SCC (total)                   0 d,  0 h,  0 min,  0.088 sec
 SCC setup                      ...        0 min,  0.000 sec (  0.156%)
 Dispersion                     ...        0 min,  0.000 sec (  0.142%)
 classical contributions        ...        0 min,  0.000 sec (  0.015%)
 integral evaluation            ...        0 min,  0.002 sec (  2.178%)
 iterations                     ...        0 min,  0.084 sec ( 95.307%)
 molecular gradient             ...        0 min,  0.002 sec (  2.083%)
 printout                       ...        0 min,  0.000 sec (  0.099%)

         :::::::::::::::::::::::::::::::::::::::::::::::::::::
         ::                     SUMMARY                     ::
         :::::::::::::::::::::::::::::::::::::::::::::::::::::
         :: total energy             -31.538924976445 Eh    ::
         :: gradient norm              0.046702785868 Eh/a0 ::
         :: HOMO-LUMO gap              3.360170792067 eV    ::
         ::.................................................::
         :: SCC energy               -32.053740259982 Eh    ::
         :: -> isotropic ES            0.004255444560 Eh    ::
         :: -> anisotropic ES          0.006219751529 Eh    ::
         :: -> anisotropic XC          0.022295211722 Eh    ::
         :: -> dispersion             -0.024217708350 Eh    ::
         :: repulsion energy           0.514815283537 Eh    ::
         :: add. restraining           0.000000000000 Eh    ::
         :: total charge               0.000000000000 e     ::
         :::::::::::::::::::::::::::::::::::::::::::::::::::::

      ----------------------------------------------------------- 
     |                   =====================                   |
     |                        A N C O P T                        |
     |                   =====================                   |
     |               Approximate Normal Coordinate               |
     |                Rational Function Optimizer                |
      ----------------------------------------------------------- 
      ----------------------------------------------------------- 
     |                   =====================                   |
     |                        A N C O P T                        |
     |                   =====================                   |
     |               Approximate Normal Coordinate               |
     |                Rational Function Optimizer                |
      ----------------------------------------------------------- 

          ...................................................
          :                      SETUP                      :
          :.................................................:
          :   optimization level           extreme          :
          :   max. optcycles                  5000          :
          :   ANC micro-cycles                  20          :
          :   degrees of freedom                72          :
          :.................................................:
          :   RF solver                   davidson          :
          :   write xtbopt.log                true          :
          :   linear?                        false          :
          :   energy convergence         0.5000000E-07 Eh   :
          :   grad. convergence          0.5000000E-04 Eh/α :
          :   maxmium RF displ.          1.0000000          :
          :   Hlow (freq-cutoff)         0.1000000E-01      :
          :   Hmax (freq-cutoff)         5.0000000          :
          :   S6 in model hess.         20.0000000          :
          ...................................................

generating ANC from model Hessian ...
Using Lindh-Hessian (1995)
 Shifting diagonal of input Hessian by   1.119171154956058E-002
 Lowest  eigenvalues of input Hessian
    0.010000    0.010140    0.000000    0.000000    0.000000    0.000000
    0.000000    0.000000    0.012378    0.012612    0.012850    0.014646
    0.017086    0.019043    0.020311    0.021764    0.025646    0.025836
 Highest eigenvalues
    1.348742    1.536835    1.563893    1.865807    1.967797    1.987461
 

........................................................................
.............................. CYCLE    1 ..............................
........................................................................

 iter      E             dE          RMSdq      gap      omega  full diag
   1    -32.0539003 -0.320539E+02  0.447E-07    3.36       0.0  T
   2    -32.0539003  0.568434E-13  0.249E-07    3.36   78842.7  T
   3    -32.0539003 -0.284217E-13  0.162E-07    3.36  100000.0  T
     SCC iter.                  ...        0 min,  0.074 sec
     gradient                   ...        0 min,  0.002 sec
 * total energy  :   -31.5389250 Eh     change       -0.2131628E-13 Eh
   gradient norm :     0.0467028 Eh/α   predicted     0.0000000E+00 (-100.00%)
   displ. norm   :     0.5009965 α      lambda       -0.1272141E-01
   maximum displ.:     0.2847049 α      in ANC's #1, #2, #13, ...

........................................................................
.............................. CYCLE    2 ..............................
........................................................................

 iter      E             dE          RMSdq      gap      omega  full diag
   1    -32.0645016 -0.320645E+02  0.334E-01    3.54       0.0  T
   2    -32.0646900 -0.188434E-03  0.161E-01    3.57       1.0  T
   3    -32.0646880  0.201077E-05  0.682E-02    3.59       1.0  T
   4    -32.0647130 -0.249403E-04  0.380E-02    3.59       1.0  T
   5    -32.0647263 -0.133102E-04  0.115E-02    3.59       1.7  T
   6    -32.0647271 -0.870112E-06  0.388E-03    3.59       5.1  T
   7    -32.0647272 -0.481306E-07  0.155E-03    3.59      12.6  T
   8    -32.0647272 -0.100197E-07  0.560E-04    3.59      35.0  T
   9    -32.0647272 -0.481121E-08  0.168E-04    3.59     116.7  T
  10    -32.0647272 -0.305484E-09  0.625E-05    3.59     314.0  T
  11    -32.0647272 -0.163922E-10  0.283E-05    3.59     692.1  T
  12    -32.0647272 -0.274269E-11  0.108E-05    3.59    1818.2  T
  13    -32.0647272 -0.468958E-12  0.489E-06    3.59    4010.2  T
  14    -32.0647272 -0.497380E-13  0.732E-07    3.59   26785.0  T
     SCC iter.                  ...        0 min,  0.077 sec
     gradient                   ...        0 min,  0.002 sec
 * total energy  :   -31.5464845 Eh     change       -0.7559521E-02 Eh
   gradient norm :     0.0194421 Eh/α   predicted    -0.7957272E-02 (   5.26%)
   displ. norm   :     0.4071560 α      lambda       -0.3309704E-02
   maximum displ.:     0.2297596 α      in ANC's #1, #2, #10, ...

........................................................................
.............................. CYCLE    3 ..............................
........................................................................

 iter      E             dE          RMSdq      gap      omega  full diag
   1    -32.0664556 -0.320665E+02  0.161E-01    3.60       0.0  T
   2    -32.0664639 -0.831972E-05  0.944E-02    3.60       1.0  T
   3    -32.0664606  0.329270E-05  0.196E-02    3.60       1.0  T
   4    -32.0664643 -0.369889E-05  0.800E-03    3.60       2.5  T
   5    -32.0664654 -0.112251E-05  0.301E-03    3.60       6.5  T
   6    -32.0664655 -0.549964E-07  0.908E-04    3.60      21.6  T
   7    -32.0664655 -0.155870E-08  0.431E-04    3.60      45.5  T
   8    -32.0664655 -0.165172E-08  0.188E-04    3.60     104.4  T
   9    -32.0664655 -0.243539E-09  0.808E-05    3.60     242.7  T
  10    -32.0664655 -0.367635E-10  0.298E-05    3.60     657.7  T
  11    -32.0664655 -0.748202E-11  0.101E-05    3.60    1942.6  T
  12    -32.0664655 -0.255795E-12  0.301E-06    3.60    6521.4  T
  13    -32.0664655  0.213163E-13  0.130E-06    3.60   15126.2  T
     SCC iter.                  ...        0 min,  0.076 sec
     gradient                   ...        0 min,  0.002 sec
 * total energy  :   -31.5489846 Eh     change       -0.2500150E-02 Eh
   gradient norm :     0.0088714 Eh/α   predicted    -0.1929213E-02 ( -22.84%)
   displ. norm   :     0.4921163 α      lambda       -0.2287951E-02
   maximum displ.:     0.2926984 α      in ANC's #1, #2, #10, ...

........................................................................
.............................. CYCLE    4 ..............................
........................................................................

 iter      E             dE          RMSdq      gap      omega  full diag
   1    -32.0664799 -0.320665E+02  0.120E-01    3.62       0.0  T
   2    -32.0664869 -0.699340E-05  0.765E-02    3.62       1.0  T
   3    -32.0664842  0.263340E-05  0.168E-02    3.62       1.2  T
   4    -32.0664877 -0.346796E-05  0.689E-03    3.62       2.8  T
   5    -32.0664882 -0.456912E-06  0.249E-03    3.62       7.9  T
   6    -32.0664883 -0.128988E-06  0.873E-04    3.62      22.5  T
   7    -32.0664883 -0.171570E-08  0.420E-04    3.62      46.7  T
   8    -32.0664883 -0.970111E-09  0.172E-04    3.62     114.2  T
   9    -32.0664883 -0.193410E-09  0.617E-05    3.62     317.8  T
  10    -32.0664883 -0.189218E-10  0.254E-05    3.62     772.1  T
  11    -32.0664883 -0.378719E-11  0.928E-06    3.62    2113.9  T
  12    -32.0664883 -0.135003E-12  0.304E-06    3.62    6446.3  T
     SCC iter.                  ...        0 min,  0.076 sec
     gradient                   ...        0 min,  0.002 sec
 * total energy  :   -31.5506196 Eh     change       -0.1634946E-02 Eh
   gradient norm :     0.0085053 Eh/α   predicted    -0.1421025E-02 ( -13.08%)
   displ. norm   :     0.4046357 α      lambda       -0.1063825E-02
   maximum displ.:     0.2569334 α      in ANC's #1, #2, #6, ...

........................................................................
.............................. CYCLE    5 ..............................
........................................................................

 iter      E             dE          RMSdq      gap      omega  full diag
   1    -32.0675773 -0.320676E+02  0.879E-02    3.61       0.0  T
   2    -32.0675793 -0.205504E-05  0.543E-02    3.60       1.0  T
   3    -32.0675764  0.295738E-05  0.126E-02    3.60       1.6  T
   4    -32.0675798 -0.343922E-05  0.341E-03    3.60       5.8  T
   5    -32.0675799 -0.138626E-06  0.161E-03    3.60      12.2  T
   6    -32.0675800 -0.259198E-07  0.746E-04    3.60      26.3  T
   7    -32.0675800 -0.205239E-08  0.195E-04    3.60     100.5  T
   8    -32.0675800 -0.210733E-09  0.967E-05    3.60     202.9  T
   9    -32.0675800 -0.422986E-10  0.279E-05    3.60     704.1  T
  10    -32.0675800 -0.497380E-11  0.121E-05    3.60    1622.0  T
  11    -32.0675800 -0.483169E-12  0.439E-06    3.60    4465.3  T
  12    -32.0675800 -0.284217E-13  0.179E-06    3.60   10960.8  T
     SCC iter.                  ...        0 min,  0.075 sec
     gradient                   ...        0 min,  0.002 sec
 * total energy  :   -31.5513991 Eh     change       -0.7795434E-03 Eh
   gradient norm :     0.0087470 Eh/α   predicted    -0.6190264E-03 ( -20.59%)
   displ. norm   :     0.3536512 α      lambda       -0.6648251E-03
   maximum displ.:     0.2198919 α      in ANC's #1, #6, #2, ...

........................................................................
.............................. CYCLE    6 ..............................
........................................................................

 iter      E             dE          RMSdq      gap      omega  full diag
   1    -32.0695935 -0.320696E+02  0.847E-02    3.60       0.0  T
   2    -32.0695946 -0.116387E-05  0.494E-02    3.60       1.0  T
   3    -32.0695937  0.938586E-06  0.718E-03    3.60       2.7  T
   4    -32.0695948 -0.107286E-05  0.294E-03    3.60       6.7  T
   5    -32.0695949 -0.166479E-06  0.111E-03    3.60      17.7  T
   6    -32.0695949 -0.512608E-08  0.504E-04    3.60      38.9  T
   7    -32.0695949 -0.882771E-09  0.129E-04    3.60     152.0  T
   8    -32.0695949 -0.685887E-10  0.635E-05    3.60     308.7  T
   9    -32.0695949 -0.283791E-10  0.188E-05    3.60    1044.2  T
  10    -32.0695949 -0.170530E-11  0.959E-06    3.60    2045.3  T
  11    -32.0695949 -0.447642E-12  0.361E-06    3.60    5439.1  T
     SCC iter.                  ...        0 min,  0.075 sec
     gradient                   ...        0 min,  0.002 sec
 * total energy  :   -31.5518901 Eh     change       -0.4909880E-03 Eh
   gradient norm :     0.0063797 Eh/α   predicted    -0.3739921E-03 ( -23.83%)
   displ. norm   :     0.3207220 α      lambda       -0.4523586E-03
   maximum displ.:     0.2011983 α      in ANC's #1, #6, #8, ...

........................................................................
.............................. CYCLE    7 ..............................
........................................................................

 iter      E             dE          RMSdq      gap      omega  full diag
   1    -32.0717580 -0.320718E+02  0.888E-02    3.59       0.0  T
   2    -32.0717595 -0.150668E-05  0.520E-02    3.59       1.0  T
   3    -32.0717591  0.429532E-06  0.687E-03    3.59       2.9  T
   4    -32.0717597 -0.622565E-06  0.232E-03    3.59       8.5  T
   5    -32.0717598 -0.658494E-07  0.134E-03    3.59      14.6  T
   6    -32.0717598 -0.229429E-07  0.453E-04    3.59      43.3  T
   7    -32.0717598 -0.447642E-11  0.133E-04    3.59     147.7  T
   8    -32.0717598 -0.945093E-10  0.623E-05    3.59     314.7  T
   9    -32.0717598 -0.380354E-10  0.186E-05    3.59    1052.6  T
  10    -32.0717598 -0.343192E-11  0.847E-06    3.59    2316.1  T
  11    -32.0717598 -0.376588E-12  0.313E-06    3.59    6268.7  T
     SCC iter.                  ...        0 min,  0.075 sec
     gradient                   ...        0 min,  0.002 sec
 * total energy  :   -31.5522187 Eh     change       -0.3285707E-03 Eh
   gradient norm :     0.0042523 Eh/α   predicted    -0.2494489E-03 ( -24.08%)
   displ. norm   :     0.3138877 α      lambda       -0.3007918E-03
   maximum displ.:     0.1800143 α      in ANC's #1, #6, #5, ...

........................................................................
.............................. CYCLE    8 ..............................
........................................................................

 iter      E             dE          RMSdq      gap      omega  full diag
   1    -32.0721828 -0.320722E+02  0.933E-02    3.59       0.0  T
   2    -32.0721841 -0.128644E-05  0.553E-02    3.60       1.0  T
   3    -32.0721837  0.350831E-06  0.817E-03    3.60       2.4  T
   4    -32.0721843 -0.582899E-06  0.187E-03    3.60      10.5  T
   5    -32.0721843 -0.127339E-07  0.842E-04    3.60      23.3  T
   6    -32.0721843 -0.657695E-08  0.418E-04    3.60      47.0  T
   7    -32.0721843 -0.753801E-09  0.112E-04    3.60     174.8  T
   8    -32.0721843 -0.886118E-10  0.417E-05    3.60     470.3  T
   9    -32.0721843 -0.843414E-11  0.165E-05    3.60    1191.7  T
  10    -32.0721843 -0.337508E-11  0.715E-06    3.60    2743.9  T
  11    -32.0721843 -0.348166E-12  0.321E-06    3.60    6100.7  T
     SCC iter.                  ...        0 min,  0.077 sec
     gradient                   ...        0 min,  0.002 sec
 * total energy  :   -31.5524438 Eh     change       -0.2251138E-03 Eh
   gradient norm :     0.0054921 Eh/α   predicted    -0.1652145E-03 ( -26.61%)
   displ. norm   :     0.3439846 α      lambda       -0.2819190E-03
   maximum displ.:     0.1799067 α      in ANC's #1, #5, #6, ...

........................................................................
.............................. CYCLE    9 ..............................
........................................................................

 iter      E             dE          RMSdq      gap      omega  full diag
   1    -32.0723350 -0.320723E+02  0.110E-01    3.60       0.0  T
   2    -32.0723368 -0.174845E-05  0.658E-02    3.60       1.0  T
   3    -32.0723360  0.755841E-06  0.112E-02    3.59       1.8  T
   4    -32.0723371 -0.112001E-05  0.218E-03    3.59       9.0  T
   5    -32.0723372 -0.882625E-08  0.120E-03    3.59      16.4  T
   6    -32.0723372 -0.162162E-07  0.540E-04    3.59      36.3  T
   7    -32.0723372 -0.117932E-08  0.130E-04    3.59     151.2  T
   8    -32.0723372 -0.832259E-10  0.442E-05    3.59     443.6  T
   9    -32.0723372 -0.174651E-10  0.182E-05    3.59    1078.2  T
  10    -32.0723372 -0.262901E-11  0.630E-06    3.59    3114.1  T
  11    -32.0723372 -0.390799E-12  0.235E-06    3.59    8355.5  T
     SCC iter.                  ...        0 min,  0.075 sec
     gradient                   ...        0 min,  0.002 sec
 * total energy  :   -31.5526590 Eh     change       -0.2151796E-03 Eh
   gradient norm :     0.0073138 Eh/α   predicted    -0.1576389E-03 ( -26.74%)
   displ. norm   :     0.3875500 α      lambda       -0.3119617E-03
   maximum displ.:     0.2151579 α      in ANC's #5, #1, #4, ...

........................................................................
.............................. CYCLE   10 ..............................
........................................................................

 iter      E             dE          RMSdq      gap      omega  full diag
   1    -32.0715404 -0.320715E+02  0.131E-01    3.60       0.0  T
   2    -32.0715428 -0.246346E-05  0.781E-02    3.60       1.0  T
   3    -32.0715416  0.119075E-05  0.130E-02    3.60       1.5  T
   4    -32.0715433 -0.164760E-05  0.314E-03    3.60       6.2  T
   5    -32.0715433 -0.486996E-07  0.164E-03    3.60      11.9  T
   6    -32.0715434 -0.408518E-07  0.678E-04    3.60      28.9  T
   7    -32.0715434 -0.949996E-09  0.171E-04    3.60     114.8  T
   8    -32.0715434 -0.123777E-09  0.521E-05    3.60     376.6  T
   9    -32.0715434 -0.451763E-10  0.189E-05    3.60    1037.4  T
  10    -32.0715434 -0.172662E-11  0.653E-06    3.60    3002.9  T
  11    -32.0715434 -0.163425E-12  0.301E-06    3.60    6511.1  T
     SCC iter.                  ...        0 min,  0.076 sec
     gradient                   ...        0 min,  0.002 sec
 * total energy  :   -31.5529048 Eh     change       -0.2457782E-03 Eh
   gradient norm :     0.0080922 Eh/α   predicted    -0.1794092E-03 ( -27.00%)
   displ. norm   :     0.4135980 α      lambda       -0.4185277E-03
   maximum displ.:     0.2437044 α      in ANC's #5, #4, #2, ...

........................................................................
.............................. CYCLE   11 ..............................
........................................................................

 iter      E             dE          RMSdq      gap      omega  full diag
   1    -32.0717310 -0.320717E+02  0.149E-01    3.62       0.0  T
   2    -32.0717341 -0.313075E-05  0.881E-02    3.62       1.0  T
   3    -32.0717328  0.134778E-05  0.128E-02    3.62       1.5  T
   4    -32.0717345 -0.177170E-05  0.433E-03    3.61       4.5  T
   5    -32.0717347 -0.146500E-06  0.190E-03    3.61      10.3  T
   6    -32.0717347 -0.615750E-07  0.782E-04    3.61      25.1  T
   7    -32.0717347 -0.723489E-09  0.156E-04    3.61     125.8  T
   8    -32.0717347 -0.262794E-09  0.507E-05    3.61     386.7  T
   9    -32.0717347 -0.329194E-10  0.223E-05    3.61     877.8  T
  10    -32.0717347 -0.294875E-11  0.754E-06    3.61    2600.2  T
  11    -32.0717347 -0.149214E-12  0.328E-06    3.61    5973.6  T
     SCC iter.                  ...        0 min,  0.075 sec
     gradient                   ...        0 min,  0.002 sec
 * total energy  :   -31.5532367 Eh     change       -0.3319782E-03 Eh
   gradient norm :     0.0078613 Eh/α   predicted    -0.2450718E-03 ( -26.18%)
   displ. norm   :     0.4724114 α      lambda       -0.5150936E-03
   maximum displ.:     0.2784809 α      in ANC's #5, #4, #2, ...

........................................................................
.............................. CYCLE   12 ..............................
........................................................................

 iter      E             dE          RMSdq      gap      omega  full diag
   1    -32.0699420 -0.320699E+02  0.168E-01    3.64       0.0  T
   2    -32.0699472 -0.520070E-05  0.988E-02    3.63       1.0  T
   3    -32.0699460  0.127961E-05  0.146E-02    3.63       1.3  T
   4    -32.0699477 -0.176131E-05  0.560E-03    3.63       3.5  T
   5    -32.0699480 -0.261680E-06  0.236E-03    3.63       8.3  T
   6    -32.0699481 -0.960364E-07  0.923E-04    3.63      21.2  T
   7    -32.0699481 -0.114502E-08  0.210E-04    3.63      93.4  T
   8    -32.0699481 -0.362945E-10  0.725E-05    3.63     270.3  T
   9    -32.0699481 -0.470237E-10  0.243E-05    3.63     807.0  T
  10    -32.0699481 -0.672884E-11  0.106E-05    3.63    1846.0  T
  11    -32.0699481 -0.468958E-12  0.356E-06    3.63    5515.9  T
  12    -32.0699481 -0.497380E-13  0.101E-06    3.63   19420.2  T
     SCC iter.                  ...        0 min,  0.076 sec
     gradient                   ...        0 min,  0.002 sec
 * total energy  :   -31.5536509 Eh     change       -0.4141091E-03 Eh
   gradient norm :     0.0084913 Eh/α   predicted    -0.3150248E-03 ( -23.93%)
   displ. norm   :     0.4823549 α      lambda       -0.7327243E-03
   maximum displ.:     0.2638433 α      in ANC's #2, #5, #4, ...

........................................................................
.............................. CYCLE   13 ..............................
........................................................................

 iter      E             dE          RMSdq      gap      omega  full diag
   1    -32.0748144 -0.320748E+02  0.166E-01    3.66       0.0  T
   2    -32.0748196 -0.518468E-05  0.943E-02    3.66       1.0  T
   3    -32.0748185  0.107539E-05  0.138E-02    3.66       1.4  T
   4    -32.0748195 -0.996290E-06  0.639E-03    3.66       3.1  T
   5    -32.0748204 -0.870881E-06  0.185E-03    3.66      10.6  T
   6    -32.0748204 -0.460705E-07  0.906E-04    3.66      21.7  T
   7    -32.0748204 -0.564441E-09  0.229E-04    3.66      85.6  T
   8    -32.0748204 -0.591086E-09  0.595E-05    3.66     329.7  T
   9    -32.0748204 -0.369766E-10  0.275E-05    3.66     713.4  T
  10    -32.0748204 -0.139266E-11  0.153E-05    3.66    1282.7  T
  11    -32.0748204 -0.176215E-11  0.516E-06    3.66    3803.8  T
  12    -32.0748204 -0.710543E-13  0.163E-06    3.66   12019.6  T
     SCC iter.                  ...        0 min,  0.076 sec
     gradient                   ...        0 min,  0.002 sec
 * total energy  :   -31.5540292 Eh     change       -0.3783249E-03 Eh
   gradient norm :     0.0116548 Eh/α   predicted    -0.4516075E-03 (  19.37%)
   displ. norm   :     0.6599581 α      lambda       -0.8119415E-03
   maximum displ.:     0.3908566 α      in ANC's #5, #4, #2, ...

........................................................................
.............................. CYCLE   14 ..............................
........................................................................

 iter      E             dE          RMSdq      gap      omega  full diag
   1    -32.0640650 -0.320641E+02  0.231E-01    3.66       0.0  T
   2    -32.0640931 -0.281416E-04  0.132E-01    3.66       1.0  T
   3    -32.0640918  0.127355E-05  0.388E-02    3.66       1.0  T
   4    -32.0640961 -0.426380E-05  0.911E-03    3.66       2.2  T
   5    -32.0640963 -0.201668E-06  0.480E-03    3.66       4.1  T
   6    -32.0640965 -0.198161E-06  0.231E-03    3.66       8.5  T
   7    -32.0640965 -0.300607E-07  0.830E-04    3.66      23.6  T
   8    -32.0640965 -0.604963E-09  0.151E-04    3.66     129.9  T
   9    -32.0640965 -0.107313E-09  0.749E-05    3.66     261.8  T
  10    -32.0640965 -0.334239E-10  0.218E-05    3.66     899.1  T
  11    -32.0640965 -0.284928E-11  0.783E-06    3.66    2503.5  T
  12    -32.0640965 -0.532907E-12  0.260E-06    3.66    7546.5  T
     SCC iter.                  ...        0 min,  0.077 sec
     gradient                   ...        0 min,  0.002 sec
 * total energy  :   -31.5542274 Eh     change       -0.1981946E-03 Eh
   gradient norm :     0.0160501 Eh/α   predicted    -0.5827900E-03 ( 194.05%)
   displ. norm   :     0.1880214 α      lambda       -0.6458216E-03
   maximum displ.:     0.1241424 α      in ANC's #5, #2, #10, ...

........................................................................
.............................. CYCLE   15 ..............................
........................................................................

 iter      E             dE          RMSdq      gap      omega  full diag
   1    -32.0717866 -0.320718E+02  0.812E-02    3.65       0.0  T
   2    -32.0717936 -0.694289E-05  0.445E-02    3.65       1.0  T
   3    -32.0717937 -0.158458E-06  0.186E-02    3.65       1.1  T
   4    -32.0717945 -0.748065E-06  0.514E-03    3.65       3.8  T
   5    -32.0717945 -0.169534E-07  0.265E-03    3.65       7.4  T
   6    -32.0717946 -0.899389E-07  0.121E-03    3.65      16.2  T
   7    -32.0717946 -0.531124E-08  0.484E-04    3.65      40.5  T
   8    -32.0717946 -0.107335E-09  0.111E-04    3.65     177.0  T
   9    -32.0717946 -0.103149E-09  0.399E-05    3.65     491.4  T
  10    -32.0717946 -0.182823E-10  0.145E-05    3.65    1349.8  T
  11    -32.0717946 -0.724754E-12  0.503E-06    3.65    3895.4  T
  12    -32.0717946 -0.277112E-12  0.133E-06    3.65   14700.1  T
     SCC iter.                  ...        0 min,  0.076 sec
     gradient                   ...        0 min,  0.002 sec
 * total energy  :   -31.5545789 Eh     change       -0.3515273E-03 Eh
   gradient norm :     0.0057103 Eh/α   predicted    -0.3343391E-03 (  -4.89%)
   displ. norm   :     0.2430792 α      lambda       -0.2600731E-03
   maximum displ.:     0.1294802 α      in ANC's #4, #5, #2, ...

........................................................................
.............................. CYCLE   16 ..............................
........................................................................

 iter      E             dE          RMSdq      gap      omega  full diag
   1    -32.0735123 -0.320735E+02  0.925E-02    3.65       0.0  T
   2    -32.0735135 -0.124425E-05  0.539E-02    3.65       1.0  T
   3    -32.0735129  0.636971E-06  0.716E-03    3.65       2.7  T
   4    -32.0735136 -0.753418E-06  0.322E-03    3.65       6.1  T
   5    -32.0735138 -0.138074E-06  0.900E-04    3.65      21.8  T
   6    -32.0735138 -0.532929E-08  0.456E-04    3.65      43.0  T
   7    -32.0735138 -0.985224E-09  0.160E-04    3.65     122.7  T
   8    -32.0735138 -0.147693E-09  0.515E-05    3.65     380.9  T
   9    -32.0735138 -0.520970E-10  0.217E-05    3.65     902.5  T
  10    -32.0735138 -0.129319E-11  0.777E-06    3.65    2522.9  T
  11    -32.0735138 -0.341061E-12  0.230E-06    3.65    8536.9  T
     SCC iter.                  ...        0 min,  0.076 sec
     gradient                   ...        0 min,  0.002 sec
 * total energy  :   -31.5547727 Eh     change       -0.1937857E-03 Eh
   gradient norm :     0.0034746 Eh/α   predicted    -0.1377355E-03 ( -28.92%)
   displ. norm   :     0.5112146 α      lambda       -0.3688553E-03
   maximum displ.:     0.2828290 α      in ANC's #4, #5, #6, ...

........................................................................
.............................. CYCLE   17 ..............................
........................................................................

 iter      E             dE          RMSdq      gap      omega  full diag
   1    -32.0726583 -0.320727E+02  0.184E-01    3.66       0.0  T
   2    -32.0726632 -0.489154E-05  0.108E-01    3.66       1.0  T
   3    -32.0726615  0.166084E-05  0.147E-02    3.66       1.3  T
   4    -32.0726636 -0.206755E-05  0.551E-03    3.66       3.6  T
   5    -32.0726640 -0.399091E-06  0.231E-03    3.66       8.5  T
   6    -32.0726641 -0.824086E-07  0.104E-03    3.66      18.9  T
   7    -32.0726641 -0.266005E-08  0.283E-04    3.66      69.4  T
   8    -32.0726641 -0.334381E-09  0.937E-05    3.66     209.4  T
   9    -32.0726641 -0.136779E-09  0.367E-05    3.66     534.8  T
  10    -32.0726641 -0.101608E-11  0.906E-06    3.66    2164.2  T
  11    -32.0726641 -0.980549E-12  0.233E-06    3.66    8435.0  T
     SCC iter.                  ...        0 min,  0.075 sec
     gradient                   ...        0 min,  0.002 sec
 * total energy  :   -31.5550076 Eh     change       -0.2349228E-03 Eh
   gradient norm :     0.0078705 Eh/α   predicted    -0.2326351E-03 (  -0.97%)
   displ. norm   :     0.3233484 α      lambda       -0.2077466E-03
   maximum displ.:     0.1854707 α      in ANC's #4, #6, #5, ...

........................................................................
.............................. CYCLE   18 ..............................
........................................................................

 iter      E             dE          RMSdq      gap      omega  full diag
   1    -32.0726166 -0.320726E+02  0.113E-01    3.67       0.0  T
   2    -32.0726186 -0.199073E-05  0.674E-02    3.67       1.0  T
   3    -32.0726173  0.123203E-05  0.125E-02    3.67       1.6  T
   4    -32.0726190 -0.164247E-05  0.277E-03    3.67       7.1  T
   5    -32.0726190 -0.321164E-07  0.173E-03    3.67      11.4  T
   6    -32.0726190 -0.531041E-07  0.654E-04    3.67      30.0  T
   7    -32.0726190 -0.496314E-09  0.147E-04    3.67     133.2  T
   8    -32.0726190 -0.142947E-09  0.591E-05    3.67     332.0  T
   9    -32.0726190 -0.462634E-10  0.172E-05    3.67    1140.9  T
  10    -32.0726190 -0.147793E-11  0.372E-06    3.67    5270.8  T
  11    -32.0726190 -0.213163E-13  0.145E-06    3.67   13497.4  T
     SCC iter.                  ...        0 min,  0.076 sec
     gradient                   ...        0 min,  0.002 sec
 * total energy  :   -31.5551563 Eh     change       -0.1486973E-03 Eh
   gradient norm :     0.0081017 Eh/α   predicted    -0.1147376E-03 ( -22.84%)
   displ. norm   :     0.3155208 α      lambda       -0.3441146E-03
   maximum displ.:     0.1889974 α      in ANC's #4, #6, #1, ...

........................................................................
.............................. CYCLE   19 ..............................
........................................................................

 iter      E             dE          RMSdq      gap      omega  full diag
   1    -32.0773721 -0.320774E+02  0.116E-01    3.68       0.0  T
   2    -32.0773735 -0.142033E-05  0.680E-02    3.68       1.0  T
   3    -32.0773731  0.386129E-06  0.660E-03    3.68       3.0  T
   4    -32.0773737 -0.600669E-06  0.241E-03    3.68       8.1  T
   5    -32.0773738 -0.765986E-07  0.114E-03    3.68      17.1  T
   6    -32.0773738 -0.994728E-08  0.464E-04    3.68      42.2  T
   7    -32.0773738 -0.241648E-09  0.152E-04    3.68     129.3  T
   8    -32.0773738 -0.154877E-09  0.453E-05    3.68     432.9  T
   9    -32.0773738 -0.272138E-10  0.188E-05    3.68    1041.8  T
  10    -32.0773738 -0.135003E-11  0.579E-06    3.68    3390.1  T
  11    -32.0773738 -0.319744E-12  0.264E-06    3.68    7439.1  T
     SCC iter.                  ...        0 min,  0.075 sec
     gradient                   ...        0 min,  0.002 sec
 * total energy  :   -31.5553750 Eh     change       -0.2187255E-03 Eh
   gradient norm :     0.0045926 Eh/α   predicted    -0.1891912E-03 ( -13.50%)
   displ. norm   :     0.5741550 α      lambda       -0.2815661E-03
   maximum displ.:     0.3501115 α      in ANC's #4, #6, #5, ...

........................................................................
.............................. CYCLE   20 ..............................
........................................................................

 iter      E             dE          RMSdq      gap      omega  full diag
   1    -32.0700987 -0.320701E+02  0.211E-01    3.68       0.0  T
   2    -32.0701045 -0.585692E-05  0.123E-01    3.68       1.0  T
   3    -32.0701033  0.129655E-05  0.156E-02    3.68       1.3  T
   4    -32.0701053 -0.209180E-05  0.519E-03    3.68       3.8  T
   5    -32.0701055 -0.193724E-06  0.275E-03    3.68       7.1  T
   6    -32.0701056 -0.832821E-07  0.118E-03    3.68      16.6  T
   7    -32.0701056 -0.477056E-08  0.350E-04    3.68      56.1  T
   8    -32.0701056 -0.136957E-09  0.105E-04    3.68     186.3  T
   9    -32.0701056 -0.190582E-09  0.363E-05    3.68     540.9  T
  10    -32.0701056 -0.620304E-11  0.183E-05    3.68    1073.8  T
  11    -32.0701056 -0.243006E-11  0.467E-06    3.68    4203.6  T
  12    -32.0701056 -0.284217E-13  0.124E-06    3.68   15785.5  T
     SCC iter.                  ...        0 min,  0.076 sec
     gradient                   ...        0 min,  0.002 sec
 * total energy  :   -31.5554757 Eh     change       -0.1006738E-03 Eh
   gradient norm :     0.0088847 Eh/α   predicted    -0.1871971E-03 (  85.94%)
   displ. norm   :     0.0838481 α      lambda       -0.2034400E-03
   maximum displ.:     0.0541003 α      in ANC's #5, #2, #10, ...
 * RMSD in coord.:     1.1071812 α      energy gain  -0.1655073E-01 Eh

generating ANC from model Hessian ...
Using Lindh-Hessian (1995)
 Shifting diagonal of input Hessian by   9.157132931295527E-003
 Lowest  eigenvalues of input Hessian
    0.000000    0.000000    0.000000    0.000000    0.000000    0.000000
    0.010000    0.010138    0.010801    0.011004    0.011320    0.012608
    0.015160    0.016986    0.018406    0.018629    0.021736    0.024153
 Highest eigenvalues
    1.363334    1.552914    1.574565    1.882597    1.987909    2.004215
 

........................................................................
.............................. CYCLE   21 ..............................
........................................................................

 iter      E             dE          RMSdq      gap      omega  full diag
   1    -32.0756798 -0.320757E+02  0.345E-02    3.69       0.0  T
   2    -32.0756809 -0.116552E-05  0.215E-02    3.68       1.0  T
   3    -32.0756808  0.158530E-06  0.710E-03    3.68       2.8  T
   4    -32.0756811 -0.342825E-06  0.206E-03    3.68       9.5  T
   5    -32.0756811 -0.132034E-07  0.110E-03    3.68      17.9  T
   6    -32.0756811 -0.135985E-07  0.403E-04    3.68      48.7  T
   7    -32.0756811 -0.110485E-08  0.148E-04    3.68     132.9  T
   8    -32.0756811  0.107150E-10  0.480E-05    3.68     408.6  T
   9    -32.0756811 -0.426112E-10  0.116E-05    3.68    1691.8  T
  10    -32.0756811 -0.142109E-13  0.715E-06    3.68    2743.4  T
  11    -32.0756811 -0.447642E-12  0.177E-06    3.68   11050.5  T
     SCC iter.                  ...        0 min,  0.075 sec
     gradient                   ...        0 min,  0.002 sec
 * total energy  :   -31.5555976 Eh     change       -0.1219102E-03 Eh
   gradient norm :     0.0036548 Eh/α   predicted     0.0000000E+00 (-100.00%)
   displ. norm   :     0.0523178 α      lambda       -0.7579395E-04
   maximum displ.:     0.0248354 α      in ANC's #9, #2, #4, ...

........................................................................
.............................. CYCLE   22 ..............................
........................................................................

 iter      E             dE          RMSdq      gap      omega  full diag
   1    -32.0762849 -0.320763E+02  0.215E-02    3.68       0.0  T
   2    -32.0762852 -0.241266E-06  0.126E-02    3.68       1.6  T
   3    -32.0762851  0.288707E-07  0.351E-03    3.68       5.6  T
   4    -32.0762852 -0.604326E-07  0.988E-04    3.68      19.8  T
   5    -32.0762852 -0.484498E-09  0.392E-04    3.68      50.0  T
   6    -32.0762852 -0.186571E-08  0.235E-04    3.68      83.4  T
   7    -32.0762852 -0.508869E-09  0.568E-05    3.68     345.4  T
   8    -32.0762852 -0.126406E-10  0.168E-05    3.68    1167.2  T
   9    -32.0762852 -0.196820E-11  0.861E-06    3.68    2277.8  T
  10    -32.0762852 -0.497380E-12  0.281E-06    3.68    6988.4  T
     SCC iter.                  ...        0 min,  0.075 sec
     gradient                   ...        0 min,  0.002 sec
 * total energy  :   -31.5556556 Eh     change       -0.5801535E-04 Eh
   gradient norm :     0.0015043 Eh/α   predicted    -0.3815791E-04 ( -34.23%)
   displ. norm   :     0.1921301 α      lambda       -0.9612971E-04
   maximum displ.:     0.0989807 α      in ANC's #9, #2, #6, ...

........................................................................
.............................. CYCLE   23 ..............................
........................................................................

 iter      E             dE          RMSdq      gap      omega  full diag
   1    -32.0766483 -0.320766E+02  0.476E-02    3.67       0.0  T
   2    -32.0766489 -0.578976E-06  0.280E-02    3.67       1.0  T
   3    -32.0766487  0.206023E-06  0.636E-03    3.67       3.1  T
   4    -32.0766490 -0.300853E-06  0.166E-03    3.67      11.8  T
   5    -32.0766490 -0.109184E-07  0.661E-04    3.67      29.7  T
   6    -32.0766490 -0.976621E-08  0.301E-04    3.67      65.2  T
   7    -32.0766490 -0.344208E-09  0.667E-05    3.67     293.8  T
   8    -32.0766490 -0.679918E-10  0.225E-05    3.67     869.8  T
   9    -32.0766490 -0.753886E-11  0.771E-06    3.67    2544.6  T
  10    -32.0766490 -0.262901E-12  0.267E-06    3.67    7332.5  T
     SCC iter.                  ...        0 min,  0.075 sec
     gradient                   ...        0 min,  0.002 sec
 * total energy  :   -31.5557467 Eh     change       -0.9110660E-04 Eh
   gradient norm :     0.0030501 Eh/α   predicted    -0.4885618E-04 ( -46.37%)
   displ. norm   :     0.1424028 α      lambda       -0.7165194E-04
   maximum displ.:     0.0733489 α      in ANC's #9, #2, #6, ...

........................................................................
.............................. CYCLE   24 ..............................
........................................................................

 iter      E             dE          RMSdq      gap      omega  full diag
   1    -32.0761832 -0.320762E+02  0.295E-02    3.67       0.0  T
   2    -32.0761833 -0.102305E-06  0.176E-02    3.67       1.1  T
   3    -32.0761832  0.103816E-06  0.253E-03    3.67       7.8  T
   4    -32.0761833 -0.128314E-06  0.823E-04    3.67      23.8  T
   5    -32.0761833 -0.705261E-08  0.406E-04    3.67      48.3  T
   6    -32.0761833 -0.602427E-09  0.123E-04    3.67     158.8  T
   7    -32.0761833 -0.109736E-09  0.474E-05    3.67     413.8  T
   8    -32.0761833 -0.168612E-10  0.172E-05    3.67    1143.4  T
   9    -32.0761833 -0.505196E-11  0.588E-06    3.67    3336.9  T
  10    -32.0761833 -0.923706E-13  0.191E-06    3.67   10242.5  T
     SCC iter.                  ...        0 min,  0.075 sec
     gradient                   ...        0 min,  0.002 sec
 * total energy  :   -31.5558069 Eh     change       -0.6020622E-04 Eh
   gradient norm :     0.0032662 Eh/α   predicted    -0.3655472E-04 ( -39.28%)
   displ. norm   :     0.2647308 α      lambda       -0.1149299E-03
   maximum displ.:     0.1290675 α      in ANC's #2, #9, #4, ...

........................................................................
.............................. CYCLE   25 ..............................
........................................................................

 iter      E             dE          RMSdq      gap      omega  full diag
   1    -32.0748503 -0.320749E+02  0.561E-02    3.67       0.0  T
   2    -32.0748509 -0.589129E-06  0.334E-02    3.67       1.0  T
   3    -32.0748505  0.393853E-06  0.663E-03    3.67       3.0  T
   4    -32.0748511 -0.525371E-06  0.182E-03    3.67      10.8  T
   5    -32.0748511 -0.539669E-08  0.130E-03    3.67      15.1  T
   6    -32.0748511 -0.122532E-07  0.242E-04    3.67      81.1  T
   7    -32.0748511 -0.370726E-09  0.717E-05    3.67     273.4  T
   8    -32.0748511 -0.122924E-10  0.365E-05    3.67     536.9  T
   9    -32.0748511 -0.163993E-10  0.108E-05    3.67    1809.9  T
  10    -32.0748511 -0.987654E-12  0.519E-06    3.67    3776.7  T
  11    -32.0748511 -0.923706E-13  0.109E-06    3.67   17958.0  T
     SCC iter.                  ...        0 min,  0.075 sec
     gradient                   ...        0 min,  0.002 sec
 * total energy  :   -31.5558664 Eh     change       -0.5949888E-04 Eh
   gradient norm :     0.0047004 Eh/α   predicted    -0.6149940E-04 (   3.36%)
   displ. norm   :     0.0344305 α      lambda       -0.5019561E-04
   maximum displ.:     0.0231089 α      in ANC's #2, #4, #16, ...

........................................................................
.............................. CYCLE   26 ..............................
........................................................................

 iter      E             dE          RMSdq      gap      omega  full diag
   1    -32.0759595 -0.320760E+02  0.158E-02    3.67       0.0  T
   2    -32.0759599 -0.358389E-06  0.862E-03    3.67       2.3  T
   3    -32.0759599 -0.523393E-08  0.276E-03    3.67       7.1  T
   4    -32.0759599 -0.149639E-07  0.952E-04    3.67      20.6  T
   5    -32.0759599 -0.792782E-08  0.388E-04    3.67      50.5  T
   6    -32.0759599 -0.702016E-11  0.199E-04    3.67      98.7  T
   7    -32.0759599 -0.421011E-09  0.638E-05    3.67     307.3  T
   8    -32.0759599 -0.116103E-10  0.207E-05    3.67     945.6  T
   9    -32.0759599 -0.203926E-11  0.105E-05    3.67    1872.2  T
  10    -32.0759599 -0.305533E-12  0.327E-06    3.67    5995.8  T
  11    -32.0759599 -0.213163E-13  0.946E-07    3.67   20734.3  T
     SCC iter.                  ...        0 min,  0.076 sec
     gradient                   ...        0 min,  0.002 sec
 * total energy  :   -31.5558998 Eh     change       -0.3332384E-04 Eh
   gradient norm :     0.0016899 Eh/α   predicted    -0.2512776E-04 ( -24.60%)
   displ. norm   :     0.1759312 α      lambda       -0.3387000E-04
   maximum displ.:     0.1022295 α      in ANC's #2, #4, #5, ...

........................................................................
.............................. CYCLE   27 ..............................
........................................................................

 iter      E             dE          RMSdq      gap      omega  full diag
   1    -32.0762996 -0.320763E+02  0.429E-02    3.67       0.0  T
   2    -32.0762999 -0.243565E-06  0.255E-02    3.67       1.0  T
   3    -32.0762996  0.277076E-06  0.471E-03    3.67       4.2  T
   4    -32.0762999 -0.342634E-06  0.969E-04    3.67      20.2  T
   5    -32.0762999 -0.822030E-08  0.624E-04    3.67      31.4  T
   6    -32.0762999 -0.344574E-08  0.183E-04    3.67     107.2  T
   7    -32.0762999 -0.477129E-10  0.460E-05    3.67     426.4  T
   8    -32.0762999 -0.118590E-10  0.197E-05    3.67     993.8  T
   9    -32.0762999 -0.439826E-11  0.859E-06    3.67    2283.0  T
  10    -32.0762999 -0.547118E-12  0.261E-06    3.67    7514.4  T
     SCC iter.                  ...        0 min,  0.075 sec
     gradient                   ...        0 min,  0.002 sec
 * total energy  :   -31.5559330 Eh     change       -0.3326034E-04 Eh
   gradient norm :     0.0020791 Eh/α   predicted    -0.1716847E-04 ( -48.38%)
   displ. norm   :     0.1074932 α      lambda       -0.2597050E-04
   maximum displ.:     0.0674921 α      in ANC's #4, #2, #5, ...

........................................................................
.............................. CYCLE   28 ..............................
........................................................................

 iter      E             dE          RMSdq      gap      omega  full diag
   1    -32.0764180 -0.320764E+02  0.273E-02    3.67       0.0  T
   2    -32.0764181 -0.553854E-07  0.160E-02    3.67       1.2  T
   3    -32.0764180  0.215494E-07  0.151E-03    3.67      13.0  T
   4    -32.0764181 -0.276139E-07  0.743E-04    3.67      26.4  T
   5    -32.0764181 -0.966213E-08  0.242E-04    3.67      81.2  T
   6    -32.0764181 -0.221384E-09  0.105E-04    3.67     186.1  T
   7    -32.0764181 -0.118824E-09  0.202E-05    3.67     972.2  T
   8    -32.0764181 -0.377298E-11  0.910E-06    3.67    2154.8  T
   9    -32.0764181 -0.788702E-12  0.343E-06    3.67    5716.8  T
     SCC iter.                  ...        0 min,  0.075 sec
     gradient                   ...        0 min,  0.002 sec
 * total energy  :   -31.5559552 Eh     change       -0.2217591E-04 Eh
   gradient norm :     0.0019168 Eh/α   predicted    -0.1314085E-04 ( -40.74%)
   displ. norm   :     0.2366336 α      lambda       -0.3601859E-04
   maximum displ.:     0.1506033 α      in ANC's #4, #2, #5, ...

........................................................................
.............................. CYCLE   29 ..............................
........................................................................

 iter      E             dE          RMSdq      gap      omega  full diag
   1    -32.0766414 -0.320766E+02  0.623E-02    3.68       0.0  T
   2    -32.0766419 -0.458349E-06  0.358E-02    3.68       1.0  T
   3    -32.0766418  0.625133E-08  0.383E-03    3.68       5.1  T
   4    -32.0766419 -0.241209E-07  0.185E-03    3.68      10.6  T
   5    -32.0766419 -0.616987E-07  0.545E-04    3.68      36.0  T
   6    -32.0766419 -0.126119E-08  0.232E-04    3.68      84.5  T
   7    -32.0766419 -0.379750E-09  0.636E-05    3.68     308.5  T
   8    -32.0766419 -0.430944E-10  0.227E-05    3.68     864.5  T
   9    -32.0766419 -0.513012E-11  0.799E-06    3.68    2456.0  T
  10    -32.0766419 -0.461853E-12  0.244E-06    3.68    8040.1  T
     SCC iter.                  ...        0 min,  0.075 sec
     gradient                   ...        0 min,  0.002 sec
 * total energy  :   -31.5559892 Eh     change       -0.3395984E-04 Eh
   gradient norm :     0.0015990 Eh/α   predicted    -0.1845792E-04 ( -45.65%)
   displ. norm   :     0.1319195 α      lambda       -0.1209035E-04
   maximum displ.:     0.0836075 α      in ANC's #4, #2, #5, ...

........................................................................
.............................. CYCLE   30 ..............................
........................................................................

 iter      E             dE          RMSdq      gap      omega  full diag
   1    -32.0764081 -0.320764E+02  0.316E-02    3.67       0.0  T
   2    -32.0764083 -0.159503E-06  0.181E-02    3.67       1.1  T
   3    -32.0764083  0.262877E-07  0.236E-03    3.67       8.3  T
   4    -32.0764083 -0.260775E-07  0.112E-03    3.67      17.5  T
   5    -32.0764083 -0.257510E-07  0.404E-04    3.67      48.5  T
   6    -32.0764083 -0.125708E-08  0.145E-04    3.67     135.5  T
   7    -32.0764083 -0.550955E-10  0.592E-05    3.67     331.3  T
   8    -32.0764083 -0.384190E-10  0.154E-05    3.67    1274.1  T
   9    -32.0764083 -0.321876E-11  0.600E-06    3.67    3266.6  T
  10    -32.0764083 -0.156319E-12  0.172E-06    3.67   11430.8  T
     SCC iter.                  ...        0 min,  0.075 sec
     gradient                   ...        0 min,  0.002 sec
 * total energy  :   -31.5560015 Eh     change       -0.1229480E-04 Eh
   gradient norm :     0.0010447 Eh/α   predicted    -0.6093057E-05 ( -50.44%)
   displ. norm   :     0.1333614 α      lambda       -0.1516889E-04
   maximum displ.:     0.0844567 α      in ANC's #4, #2, #9, ...

........................................................................
.............................. CYCLE   31 ..............................
........................................................................

 iter      E             dE          RMSdq      gap      omega  full diag
   1    -32.0776033 -0.320776E+02  0.349E-02    3.67       0.0  T
   2    -32.0776037 -0.357712E-06  0.197E-02    3.67       1.0  T
   3    -32.0776037  0.433286E-08  0.336E-03    3.67       5.8  T
   4    -32.0776037 -0.357703E-07  0.121E-03    3.67      16.2  T
   5    -32.0776037 -0.791761E-08  0.476E-04    3.67      41.2  T
   6    -32.0776037 -0.332107E-08  0.242E-04    3.67      80.9  T
   7    -32.0776037 -0.415177E-09  0.905E-05    3.67     216.7  T
   8    -32.0776037 -0.344471E-10  0.188E-05    3.67    1040.6  T
   9    -32.0776037 -0.824230E-12  0.903E-06    3.67    2171.0  T
  10    -32.0776037 -0.909495E-12  0.291E-06    3.67    6748.5  T
     SCC iter.                  ...        0 min,  0.075 sec
     gradient                   ...        0 min,  0.002 sec
 * total energy  :   -31.5560047 Eh     change       -0.3245987E-05 Eh
   gradient norm :     0.0024437 Eh/α   predicted    -0.7646100E-05 ( 135.56%)
   displ. norm   :     0.0393430 α      lambda       -0.1025851E-04
   maximum displ.:     0.0238208 α      in ANC's #4, #2, #6, ...

........................................................................
.............................. CYCLE   32 ..............................
........................................................................

 iter      E             dE          RMSdq      gap      omega  full diag
   1    -32.0769445 -0.320769E+02  0.110E-02    3.67       0.0  T
   2    -32.0769445 -0.868105E-07  0.646E-03    3.67       3.0  T
   3    -32.0769445  0.606832E-08  0.194E-03    3.67      10.1  T
   4    -32.0769445 -0.147764E-07  0.497E-04    3.67      39.5  T
   5    -32.0769445  0.943032E-10  0.364E-04    3.67      53.8  T
   6    -32.0769445 -0.103650E-08  0.113E-04    3.67     173.4  T
   7    -32.0769445 -0.914184E-10  0.249E-05    3.67     788.2  T
   8    -32.0769445 -0.326850E-12  0.734E-06    3.67    2670.4  T
   9    -32.0769445 -0.305533E-12  0.441E-06    3.67    4450.8  T
     SCC iter.                  ...        0 min,  0.075 sec
     gradient                   ...        0 min,  0.002 sec
 * total energy  :   -31.5560113 Eh     change       -0.6572317E-05 Eh
   gradient norm :     0.0010205 Eh/α   predicted    -0.5137946E-05 ( -21.82%)
   displ. norm   :     0.0189501 α      lambda       -0.3408379E-05
   maximum displ.:     0.0115863 α      in ANC's #9, #5, #2, ...

........................................................................
.............................. CYCLE   33 ..............................
........................................................................

 iter      E             dE          RMSdq      gap      omega  full diag
   1    -32.0766196 -0.320766E+02  0.856E-03    3.67       0.0  T
   2    -32.0766197 -0.860260E-07  0.434E-03    3.67       4.5  T
   3    -32.0766197 -0.316113E-08  0.163E-03    3.67      12.1  T
   4    -32.0766197 -0.351194E-08  0.575E-04    3.67      34.1  T
   5    -32.0766197 -0.133405E-08  0.248E-04    3.67      79.2  T
   6    -32.0766197 -0.720632E-09  0.832E-05    3.67     235.8  T
   7    -32.0766197 -0.301696E-10  0.461E-05    3.67     425.8  T
   8    -32.0766197 -0.634515E-11  0.108E-05    3.67    1823.8  T
   9    -32.0766197 -0.213163E-12  0.413E-06    3.67    4753.9  T
  10    -32.0766197 -0.405009E-12  0.152E-06    3.67   12890.9  T
     SCC iter.                  ...        0 min,  0.075 sec
     gradient                   ...        0 min,  0.002 sec
 * total energy  :   -31.5560132 Eh     change       -0.1939141E-05 Eh
   gradient norm :     0.0004823 Eh/α   predicted    -0.1705286E-05 ( -12.06%)
   displ. norm   :     0.0129562 α      lambda        0.6115635E-06
   maximum displ.:     0.0094088 α      in ANC's #5, #2, #4, ...

........................................................................
.............................. CYCLE   34 ..............................
........................................................................

 iter      E             dE          RMSdq      gap      omega  full diag
   1    -32.0768389 -0.320768E+02  0.478E-03    3.67       0.0  T
   2    -32.0768389 -0.217880E-07  0.247E-03    3.67       7.9  T
   3    -32.0768389 -0.257401E-09  0.790E-04    3.67      24.8  T
   4    -32.0768389  0.196252E-10  0.338E-04    3.67      58.1  T
   5    -32.0768389 -0.160128E-08  0.119E-04    3.67     164.3  T
   6    -32.0768389 -0.985807E-10  0.406E-05    3.67     483.3  T
   7    -32.0768389 -0.454037E-11  0.154E-05    3.67    1277.1  T
   8    -32.0768389 -0.267875E-11  0.359E-06    3.67    5465.6  T
   9    -32.0768389 -0.426326E-13  0.182E-06    3.67   10802.3  T
     SCC iter.                  ...        0 min,  0.075 sec
     gradient                   ...        0 min,  0.002 sec
 * total energy  :   -31.5560132 Eh     change        0.5953037E-07 Eh
   gradient norm :     0.0007199 Eh/α   predicted     0.3044149E-06 ( 411.36%)
   displ. norm   :     0.0110822 α      lambda       -0.1615724E-05
   maximum displ.:     0.0052903 α      in ANC's #9, #4, #10, ...

........................................................................
.............................. CYCLE   35 ..............................
........................................................................

 iter      E             dE          RMSdq      gap      omega  full diag
   1    -32.0767516 -0.320768E+02  0.629E-03    3.67       0.0  T
   2    -32.0767516 -0.289691E-07  0.332E-03    3.67       5.9  T
   3    -32.0767517 -0.203642E-08  0.934E-04    3.67      21.0  T
   4    -32.0767516  0.165223E-08  0.416E-04    3.67      47.2  T
   5    -32.0767517 -0.334812E-08  0.726E-05    3.67     270.2  T
   6    -32.0767517 -0.186446E-10  0.376E-05    3.67     522.0  T
   7    -32.0767517 -0.101963E-10  0.141E-05    3.67    1389.1  T
   8    -32.0767517 -0.468958E-12  0.500E-06    3.67    3922.1  T
   9    -32.0767517 -0.568434E-12  0.129E-06    3.67   15254.1  T
     SCC iter.                  ...        0 min,  0.075 sec
     gradient                   ...        0 min,  0.002 sec
 * total energy  :   -31.5560147 Eh     change       -0.1559809E-05 Eh
   gradient norm :     0.0002892 Eh/α   predicted    -0.8119653E-06 ( -47.94%)
   displ. norm   :     0.0174108 α      lambda       -0.9394083E-06
   maximum displ.:     0.0080251 α      in ANC's #2, #9, #1, ...

........................................................................
.............................. CYCLE   36 ..............................
........................................................................

 iter      E             dE          RMSdq      gap      omega  full diag
   1    -32.0767353 -0.320767E+02  0.559E-03    3.67       0.0  T
   2    -32.0767353 -0.250874E-08  0.329E-03    3.67       6.0  T
   3    -32.0767353  0.457376E-10  0.304E-04    3.67      64.6  T
   4    -32.0767353 -0.584322E-09  0.116E-04    3.67     169.0  T
   5    -32.0767353 -0.688658E-10  0.617E-05    3.67     317.8  T
   6    -32.0767353 -0.390941E-10  0.282E-05    3.67     694.5  T
   7    -32.0767353 -0.245137E-11  0.452E-06    3.67    4338.0  T
   8    -32.0767353 -0.206057E-12  0.253E-06    3.67    7764.9  T
     SCC iter.                  ...        0 min,  0.074 sec
     gradient                   ...        0 min,  0.002 sec
 * total energy  :   -31.5560157 Eh     change       -0.9789707E-06 Eh
   gradient norm :     0.0002736 Eh/α   predicted    -0.4717574E-06 ( -51.81%)
   displ. norm   :     0.0252773 α      lambda       -0.9708750E-06
   maximum displ.:     0.0122502 α      in ANC's #1, #5, #2, ...

........................................................................
.............................. CYCLE   37 ..............................
........................................................................

 iter      E             dE          RMSdq      gap      omega  full diag
   1    -32.0766857 -0.320767E+02  0.786E-03    3.67       0.0  T
   2    -32.0766857 -0.586643E-08  0.461E-03    3.67       4.3  T
   3    -32.0766857 -0.354625E-09  0.370E-04    3.67      53.0  T
   4    -32.0766857 -0.427946E-09  0.177E-04    3.67     110.5  T
   5    -32.0766857 -0.473797E-09  0.532E-05    3.67     368.6  T
   6    -32.0766857 -0.110987E-10  0.290E-05    3.67     675.9  T
   7    -32.0766857 -0.505196E-11  0.860E-06    3.67    2280.6  T
   8    -32.0766857 -0.142109E-13  0.252E-06    3.67    7776.4  T
     SCC iter.                  ...        0 min,  0.074 sec
     gradient                   ...        0 min,  0.002 sec
 * total energy  :   -31.5560167 Eh     change       -0.1027645E-05 Eh
   gradient norm :     0.0003198 Eh/α   predicted    -0.4897208E-06 ( -52.35%)
   displ. norm   :     0.0261390 α      lambda       -0.8054131E-06
   maximum displ.:     0.0137378 α      in ANC's #1, #2, #5, ...

........................................................................
.............................. CYCLE   38 ..............................
........................................................................

 iter      E             dE          RMSdq      gap      omega  full diag
   1    -32.0767028 -0.320767E+02  0.828E-03    3.67       0.0  T
   2    -32.0767028 -0.562367E-08  0.484E-03    3.67       4.0  T
   3    -32.0767028  0.742588E-09  0.486E-04    3.67      40.4  T
   4    -32.0767028 -0.190683E-08  0.194E-04    3.67     100.9  T
   5    -32.0767028 -0.276614E-09  0.700E-05    3.67     280.2  T
   6    -32.0767028 -0.417728E-10  0.295E-05    3.67     663.8  T
   7    -32.0767028 -0.233058E-11  0.101E-05    3.67    1945.2  T
   8    -32.0767028 -0.447642E-12  0.429E-06    3.67    4571.7  T
   9    -32.0767028 -0.305533E-12  0.101E-06    3.67   19476.2  T
     SCC iter.                  ...        0 min,  0.075 sec
     gradient                   ...        0 min,  0.002 sec
 * total energy  :   -31.5560176 Eh     change       -0.8893330E-06 Eh
   gradient norm :     0.0002218 Eh/α   predicted    -0.4067858E-06 ( -54.26%)
   displ. norm   :     0.0252354 α      lambda       -0.7163272E-06
   maximum displ.:     0.0146228 α      in ANC's #1, #2, #4, ...

........................................................................
.............................. CYCLE   39 ..............................
........................................................................

 iter      E             dE          RMSdq      gap      omega  full diag
   1    -32.0766979 -0.320767E+02  0.877E-03    3.67       0.0  T
   2    -32.0766979 -0.440766E-08  0.513E-03    3.67       3.8  T
   3    -32.0766979  0.703785E-09  0.378E-04    3.67      51.9  T
   4    -32.0766979 -0.136693E-08  0.193E-04    3.67     101.7  T
   5    -32.0766979 -0.572882E-09  0.562E-05    3.67     348.8  T
   6    -32.0766979 -0.100400E-10  0.264E-05    3.67     743.6  T
   7    -32.0766979 -0.210321E-11  0.913E-06    3.67    2148.0  T
   8    -32.0766979 -0.112976E-11  0.204E-06    3.67    9618.8  T
     SCC iter.                  ...        0 min,  0.074 sec
     gradient                   ...        0 min,  0.002 sec
 * total energy  :   -31.5560184 Eh     change       -0.8005359E-06 Eh
   gradient norm :     0.0001475 Eh/α   predicted    -0.3602450E-06 ( -55.00%)
   displ. norm   :     0.0245144 α      lambda       -0.6040361E-06
   maximum displ.:     0.0151386 α      in ANC's #1, #2, #4, ...

........................................................................
.............................. CYCLE   40 ..............................
........................................................................

 iter      E             dE          RMSdq      gap      omega  full diag
   1    -32.0766947 -0.320767E+02  0.870E-03    3.67       0.0  T
   2    -32.0766947 -0.344619E-08  0.510E-03    3.67       3.8  T
   3    -32.0766947  0.817472E-09  0.360E-04    3.67      54.4  T
   4    -32.0766947 -0.178496E-08  0.161E-04    3.67     121.6  T
   5    -32.0766947 -0.273509E-09  0.618E-05    3.67     317.6  T
   6    -32.0766947 -0.215010E-10  0.278E-05    3.67     705.4  T
   7    -32.0766947 -0.161293E-11  0.539E-06    3.67    3636.7  T
   8    -32.0766947 -0.355271E-12  0.222E-06    3.67    8833.1  T
     SCC iter.                  ...        0 min,  0.075 sec
     gradient                   ...        0 min,  0.002 sec
 * total energy  :   -31.5560191 Eh     change       -0.6880352E-06 Eh
   gradient norm :     0.0001588 Eh/α   predicted    -0.3056309E-06 ( -55.58%)
   displ. norm   :     0.0235200 α      lambda       -0.4870158E-06
   maximum displ.:     0.0154078 α      in ANC's #1, #2, #4, ...

........................................................................
.............................. CYCLE   41 ..............................
........................................................................

 iter      E             dE          RMSdq      gap      omega  full diag
   1    -32.0767072 -0.320767E+02  0.885E-03    3.67       0.0  T
   2    -32.0767072 -0.501922E-08  0.512E-03    3.67       3.8  T
   3    -32.0767072  0.424386E-09  0.389E-04    3.67      50.5  T
   4    -32.0767072 -0.778087E-09  0.222E-04    3.67      88.3  T
   5    -32.0767072 -0.861604E-09  0.608E-05    3.67     322.3  T
   6    -32.0767072 -0.170886E-10  0.273E-05    3.67     717.3  T
   7    -32.0767072 -0.300560E-11  0.917E-06    3.67    2137.6  T
   8    -32.0767072 -0.902389E-12  0.221E-06    3.67    8892.9  T
     SCC iter.                  ...        0 min,  0.074 sec
     gradient                   ...        0 min,  0.002 sec
 * total energy  :   -31.5560196 Eh     change       -0.5311564E-06 Eh
   gradient norm :     0.0001806 Eh/α   predicted    -0.2468318E-06 ( -53.53%)
   displ. norm   :     0.0236198 α      lambda       -0.3697089E-06
   maximum displ.:     0.0164663 α      in ANC's #1, #2, #4, ...

........................................................................
.............................. CYCLE   42 ..............................
........................................................................

 iter      E             dE          RMSdq      gap      omega  full diag
   1    -32.0766870 -0.320767E+02  0.896E-03    3.67       0.0  T
   2    -32.0766870 -0.454327E-08  0.522E-03    3.67       3.8  T
   3    -32.0766870  0.121369E-08  0.396E-04    3.67      49.6  T
   4    -32.0766870 -0.199768E-08  0.202E-04    3.67      96.9  T
   5    -32.0766870 -0.617959E-09  0.654E-05    3.67     300.0  T
   6    -32.0766870 -0.241798E-10  0.285E-05    3.67     687.1  T
   7    -32.0766870 -0.110134E-11  0.736E-06    3.67    2665.6  T
   8    -32.0766870 -0.120792E-12  0.281E-06    3.67    6990.2  T
     SCC iter.                  ...        0 min,  0.074 sec
     gradient                   ...        0 min,  0.002 sec
 * total energy  :   -31.5560200 Eh     change       -0.4010866E-06 Eh
   gradient norm :     0.0001793 Eh/α   predicted    -0.1888466E-06 ( -52.92%)
   displ. norm   :     0.0159626 α      lambda       -0.2804486E-06
   maximum displ.:     0.0115944 α      in ANC's #1, #2, #6, ...
 * RMSD in coord.:     0.2746330 α      energy gain  -0.5443265E-03 Eh

generating ANC from model Hessian ...
Using Lindh-Hessian (1995)
 Shifting diagonal of input Hessian by   9.142242944753676E-003
 Lowest  eigenvalues of input Hessian
    0.000000    0.000000    0.000000    0.000000    0.000000    0.000000
    0.010000    0.010081    0.010731    0.011014    0.011406    0.012524
    0.015112    0.016956    0.018390    0.018600    0.021938    0.024150
 Highest eigenvalues
    1.363717    1.554042    1.573931    1.882171    1.988304    2.004430
 

........................................................................
.............................. CYCLE   43 ..............................
........................................................................

 iter      E             dE          RMSdq      gap      omega  full diag
   1    -32.0767124 -0.320767E+02  0.620E-03    3.67       0.0  T
   2    -32.0767124 -0.286257E-08  0.362E-03    3.67       5.4  T
   3    -32.0767124  0.164214E-09  0.281E-04    3.67      69.8  T
   4    -32.0767124 -0.403226E-09  0.148E-04    3.67     132.5  T
   5    -32.0767124 -0.389583E-09  0.433E-05    3.67     453.1  T
   6    -32.0767124 -0.161933E-10  0.221E-05    3.67     888.5  T
   7    -32.0767124 -0.397904E-12  0.501E-06    3.67    3916.3  T
   8    -32.0767124 -0.440536E-12  0.165E-06    3.67   11855.5  T
     SCC iter.                  ...        0 min,  0.074 sec
     gradient                   ...        0 min,  0.002 sec
 * total energy  :   -31.5560204 Eh     change       -0.3588560E-06 Eh
   gradient norm :     0.0001297 Eh/α   predicted     0.0000000E+00 (-100.00%)
   displ. norm   :     0.0053519 α      lambda       -0.1925348E-07
   maximum displ.:     0.0039341 α      in ANC's #1, #4, #3, ...

........................................................................
.............................. CYCLE   44 ..............................
........................................................................

 iter      E             dE          RMSdq      gap      omega  full diag
   1    -32.0767228 -0.320767E+02  0.220E-03    3.67       0.0  T
   2    -32.0767228 -0.408349E-09  0.128E-03    3.67      15.3  T
   3    -32.0767228  0.467892E-10  0.115E-04    3.67     169.9  T
   4    -32.0767228 -0.118455E-09  0.478E-05    3.67     410.0  T
   5    -32.0767228 -0.196891E-10  0.174E-05    3.67    1127.9  T
   6    -32.0767228 -0.218847E-11  0.902E-06    3.67    2173.7  T
   7    -32.0767228 -0.305533E-12  0.264E-06    3.67    7417.4  T
     SCC iter.                  ...        0 min,  0.073 sec
     gradient                   ...        0 min,  0.002 sec
 * total energy  :   -31.5560206 Eh     change       -0.2225926E-06 Eh
   gradient norm :     0.0000477 Eh/α   predicted    -0.8948922E-07 ( -59.80%)
   displ. norm   :     0.0116697 α      lambda       -0.2448588E-06
   maximum displ.:     0.0079296 α      in ANC's #1, #3, #4, ...

........................................................................
.............................. CYCLE   45 ..............................
........................................................................

 iter      E             dE          RMSdq      gap      omega  full diag
   1    -32.0767241 -0.320767E+02  0.454E-03    3.67       0.0  T
   2    -32.0767241 -0.908820E-09  0.266E-03    3.67       7.4  T
   3    -32.0767241  0.755662E-10  0.169E-04    3.67     116.1  T
   4    -32.0767241 -0.321613E-09  0.696E-05    3.67     281.6  T
   5    -32.0767241 -0.492051E-10  0.274E-05    3.67     715.4  T
   6    -32.0767241 -0.327560E-11  0.110E-05    3.67    1789.0  T
   7    -32.0767241 -0.227374E-12  0.196E-06    3.67   10022.8  T
   8    -32.0767241 -0.284217E-13  0.689E-07    3.67   28458.8  T
     SCC iter.                  ...        0 min,  0.074 sec
     gradient                   ...        0 min,  0.002 sec
 * total energy  :   -31.5560209 Eh     change       -0.3284107E-06 Eh
   gradient norm :     0.0001182 Eh/α   predicted    -0.1360084E-06 ( -58.59%)
   displ. norm   :     0.0146508 α      lambda       -0.2592859E-06
   maximum displ.:     0.0100710 α      in ANC's #1, #3, #4, ...

........................................................................
.............................. CYCLE   46 ..............................
........................................................................

 iter      E             dE          RMSdq      gap      omega  full diag
   1    -32.0767174 -0.320767E+02  0.580E-03    3.67       0.0  T
   2    -32.0767174 -0.123897E-08  0.340E-03    3.67       5.8  T
   3    -32.0767174  0.373504E-09  0.217E-04    3.67      90.5  T
   4    -32.0767174 -0.736698E-09  0.905E-05    3.67     216.8  T
   5    -32.0767174 -0.102951E-09  0.303E-05    3.67     646.5  T
   6    -32.0767174 -0.111555E-11  0.138E-05    3.67    1422.6  T
   7    -32.0767174 -0.660805E-12  0.420E-06    3.67    4667.5  T
   8    -32.0767174 -0.298428E-12  0.123E-06    3.67   15984.4  T
     SCC iter.                  ...        0 min,  0.074 sec
     gradient                   ...        0 min,  0.002 sec
 * total energy  :   -31.5560213 Eh     change       -0.3109167E-06 Eh
   gradient norm :     0.0001112 Eh/α   predicted    -0.1299101E-06 ( -58.22%)
   displ. norm   :     0.0135511 α      lambda       -0.1937072E-06
   maximum displ.:     0.0098061 α      in ANC's #1, #3, #5, ...

........................................................................
.............................. CYCLE   47 ..............................
........................................................................

 iter      E             dE          RMSdq      gap      omega  full diag
   1    -32.0767176 -0.320767E+02  0.563E-03    3.67       0.0  T
   2    -32.0767177 -0.157140E-08  0.331E-03    3.67       5.9  T
   3    -32.0767177  0.127223E-09  0.227E-04    3.67      86.4  T
   4    -32.0767177 -0.525866E-09  0.874E-05    3.67     224.5  T
   5    -32.0767177 -0.617888E-10  0.376E-05    3.67     521.0  T
   6    -32.0767177 -0.136424E-10  0.178E-05    3.67    1099.3  T
   7    -32.0767177 -0.355271E-12  0.307E-06    3.67    6380.6  T
   8    -32.0767177 -0.127898E-12  0.116E-06    3.67   16960.8  T
     SCC iter.                  ...        0 min,  0.074 sec
     gradient                   ...        0 min,  0.002 sec
 * total energy  :   -31.5560215 Eh     change       -0.2497766E-06 Eh
   gradient norm :     0.0000711 Eh/α   predicted    -0.1009813E-06 ( -59.57%)
   displ. norm   :     0.0108770 α      lambda       -0.1558607E-06
   maximum displ.:     0.0080983 α      in ANC's #1, #5, #3, ...

........................................................................
.............................. CYCLE   48 ..............................
........................................................................

 iter      E             dE          RMSdq      gap      omega  full diag
   1    -32.0767187 -0.320767E+02  0.468E-03    3.67       0.0  T
   2    -32.0767187 -0.112944E-08  0.272E-03    3.67       7.2  T
   3    -32.0767187  0.266269E-09  0.200E-04    3.67      98.1  T
   4    -32.0767187 -0.443904E-09  0.996E-05    3.67     196.9  T
[...]
         :: total charge               0.000000000000 e     ::
         :::::::::::::::::::::::::::::::::::::::::::::::::::::

           ------------------------------------------------- 
          |                Numerical Hessian                |
           ------------------------------------------------- 
step length          :   0.00500
SCC accuracy         :   0.30000
Hessian scale factor :   1.00000
frozen atoms in %    :   0.00000    0
RMS gradient         :   0.00002
estimated CPU  time      1.14 min
estimated wall time      0.14 min

writing file <hessian>.

 projected vibrational frequencies (cm⁻¹)
eigval :       -0.00    -0.00    -0.00    -0.00     0.00     0.00
eigval :       10.92    52.94    72.05    99.57   131.42   159.47
eigval :      199.37   214.98   232.71   266.24   290.89   333.88
eigval :      361.59   429.18   452.30   585.98   656.94   661.90
eigval :      687.30   698.96   735.88   762.22   779.24   873.58
eigval :      898.03   926.25   932.64   969.14   977.10   994.01
eigval :     1012.30  1018.76  1071.15  1077.18  1083.43  1117.41
eigval :     1120.83  1181.60  1198.20  1224.44  1229.49  1251.11
eigval :     1252.30  1279.98  1315.43  1409.66  1410.77  1423.25
eigval :     1438.67  1448.23  1457.49  1497.25  1498.82  1501.01
eigval :     1502.53  1579.63  1589.34  2925.76  2936.34  2948.04
eigval :     2951.05  3013.82  3014.40  3019.98  3024.55  3029.98
eigval :     3033.48  3062.07  3066.12  3074.30  3080.13  3088.02
           -------------------------------------------------
          |                Property Printout                |
           -------------------------------------------------

    * Orbital Energies and Occupations

         #    Occupation            Energy/Eh            Energy/eV
      -------------------------------------------------------------
         1        2.0000           -0.6580477             -17.9064
       ...           ...                  ...                  ...
        18        2.0000           -0.4773003             -12.9880
        19        2.0000           -0.4745126             -12.9121
        20        2.0000           -0.4632976             -12.6070
        21        2.0000           -0.4617820             -12.5657
        22        2.0000           -0.4524537             -12.3119
        23        2.0000           -0.4446176             -12.0987
        24        2.0000           -0.4381691             -11.9232
        25        2.0000           -0.4230452             -11.5116
        26        2.0000           -0.4182574             -11.3814
        27        2.0000           -0.4045650             -11.0088
        28        2.0000           -0.4040578             -10.9950
        29        2.0000           -0.3968736             -10.7995
        30        2.0000           -0.3672883              -9.9944 (HOMO)
        31                         -0.2325544              -6.3281 (LUMO)
        32                         -0.2227605              -6.0616
        33                         -0.1561407              -4.2488
        34                         -0.1513729              -4.1191
        35                         -0.0928273              -2.5260
        36                         -0.0020452              -0.0557
        37                          0.0592670               1.6127
        38                          0.0915770               2.4919
        39                          0.1095852               2.9820
        40                          0.1326519               3.6096
        41                          0.1365193               3.7149
       ...                                ...                  ...
        64                          0.7811992              21.2575
      -------------------------------------------------------------
                  HL-Gap            0.1347339 Eh            3.6663 eV
             Fermi-level           -0.2999214 Eh           -8.1613 eV

     #   Z          covCN         q      C6AA      α(0)
     1  15 P        3.057    -0.114   165.384    23.102
     2   6 C        3.748    -0.045    21.447     6.605
     3   1 H        0.925     0.040     2.449     2.447
     4   1 H        0.925     0.042     2.419     2.432
     5   6 C        3.819    -0.097    22.333     6.726
     6   1 H        0.925     0.042     2.425     2.435
     7   1 H        0.925     0.036     2.502     2.474
     8   1 H        0.925     0.032     2.551     2.498
     9   6 C        2.916     0.008    27.846     8.653
    10   6 C        2.960    -0.030    28.739     8.793
    11   6 C        3.019    -0.030    28.730     8.792
    12   6 C        2.919    -0.031    28.769     8.796
    13   6 C        2.918    -0.030    28.748     8.792
    14   6 C        2.920    -0.029    28.735     8.791
    15   1 H        0.926     0.032     2.562     2.503
    16   1 H        0.925     0.039     2.458     2.452
    17   1 H        0.926     0.028     2.612     2.527
    18   1 H        0.926     0.030     2.586     2.515
    19   1 H        0.926     0.029     2.599     2.521
    20   6 C        3.748    -0.048    21.494     6.613
    21   1 H        0.925     0.040     2.449     2.447
    22   1 H        0.925     0.041     2.432     2.439
    23   6 C        3.823    -0.098    22.350     6.728
    24   1 H        0.925     0.042     2.421     2.433
    25   1 H        0.925     0.036     2.497     2.471
    26   1 H        0.925     0.033     2.548     2.496

 Mol. C6AA /au·bohr⁶  :       7598.145592
 Mol. C8AA /au·bohr⁸  :     202559.044042
 Mol. α(0) /au        :        139.481513


Wiberg/Mayer (AO) data.
largest (>0.10) Wiberg bond orders for each atom

 ---------------------------------------------------------------------------
     #   Z sym  total        # sym  WBO       # sym  WBO       # sym  WBO
 ---------------------------------------------------------------------------
     1  15 P    3.344 --    20 C    1.027     2 C    1.020     9 C    1.008
     2   6 C    3.996 --     1 P    1.020     5 C    1.017     3 H    0.957
                             4 H    0.952
     3   1 H    0.998 --     2 C    0.957
     4   1 H    0.998 --     2 C    0.952
     5   6 C    3.997 --     2 C    1.017     6 H    0.985     8 H    0.984
                             7 H    0.984
     6   1 H    0.998 --     5 C    0.985
     7   1 H    0.999 --     5 C    0.984
     8   1 H    0.999 --     5 C    0.984
     9   6 C    3.983 --    11 C    1.406    10 C    1.400     1 P    1.008
                            14 C    0.108
    10   6 C    3.993 --    12 C    1.448     9 C    1.400    15 H    0.963
                            13 C    0.110
    11   6 C    3.991 --    13 C    1.444     9 C    1.406    16 H    0.964
                            12 C    0.109
    12   6 C    3.993 --    10 C    1.448    14 C    1.434    17 H    0.970
                            11 C    0.109
    13   6 C    3.992 --    11 C    1.444    14 C    1.439    18 H    0.970
                            10 C    0.110
    14   6 C    3.990 --    13 C    1.439    12 C    1.434    19 H    0.971
                             9 C    0.108
    15   1 H    0.999 --    10 C    0.963
    16   1 H    0.998 --    11 C    0.964
    17   1 H    0.999 --    12 C    0.970
    18   1 H    0.999 --    13 C    0.970
    19   1 H    0.998 --    14 C    0.971
    20   6 C    3.995 --     1 P    1.027    23 C    1.016    21 H    0.960
                            22 H    0.951
    21   1 H    0.998 --    20 C    0.960
    22   1 H    0.998 --    20 C    0.951
    23   6 C    3.996 --    20 C    1.016    24 H    0.985    26 H    0.985
                            25 H    0.984
    24   1 H    0.998 --    23 C    0.985
    25   1 H    0.999 --    23 C    0.984
    26   1 H    0.998 --    23 C    0.985
 ---------------------------------------------------------------------------

Topologies differ in total number of bonds
Writing topology from bond orders to xtbtopo.mol

molecular dipole:
                 x           y           z       tot (Debye)
 q only:       -0.000       0.142       0.205
   full:        0.094       0.507       0.370       1.613
molecular quadrupole (traceless):
                xx          xy          yy          xz          yz          zz
 q only:        0.826       0.714       0.732       1.760      -1.506      -1.558
  q+dip:       -0.658       4.506       2.645       2.764      -4.654      -1.987
   full:        1.588       2.859       1.304       1.799      -5.108      -2.891

           -------------------------------------------------
          |                Geometry Summary                 |
           -------------------------------------------------

      molecular mass/u    :      166.2002322
   center of mass at/Å    :        1.6444850       1.1645612      -3.4071029
  moments of inertia/u·Å² :        0.3314129E+03   0.8147961E+03   0.9495917E+03
rotational constants/cm⁻¹ :        0.5086595E-01   0.2068939E-01   0.1775251E-01

 * 23 selected distances

     #   Z          #   Z                                           value/Å
     2   6 C        3   1 H                                       1.0934253
     2   6 C        4   1 H                                       1.0941834
     2   6 C        5   6 C                                       1.5218508
     5   6 C        6   1 H                                       1.0882444
     5   6 C        7   1 H                                       1.0889862
     5   6 C        8   1 H                                       1.0888525
     9   6 C       10   6 C                                       1.3899182
     9   6 C       11   6 C                                       1.3909479
    10   6 C       12   6 C                                       1.3830729
    11   6 C       13   6 C                                       1.3830837
    12   6 C       14   6 C                                       1.3851224
    13   6 C       14   6 C                                       1.3843797
    10   6 C       15   1 H                                       1.0802995 (min)
    11   6 C       16   1 H                                       1.0815280
    12   6 C       17   1 H                                       1.0809532
    13   6 C       18   1 H                                       1.0805433
    14   6 C       19   1 H                                       1.0803057
    20   6 C       21   1 H                                       1.0935223
    20   6 C       22   1 H                                       1.0930222
    20   6 C       23   6 C                                       1.5239587 (max)
    23   6 C       24   1 H                                       1.0879881
    23   6 C       25   1 H                                       1.0883247
    23   6 C       26   1 H                                       1.0888631

 * 2 distinct bonds (by element types)

   Z      Z             #   av. dist./Å        max./Å        min./Å
   1 H    6 C          15     1.0872694     1.0941834     1.0802995
   6 C    6 C           8     1.4202918     1.5239587     1.3830729

           -------------------------------------------------
          |               Frequency Printout                |
           -------------------------------------------------
 projected vibrational frequencies (cm⁻¹)
eigval :       -0.00    -0.00    -0.00    -0.00     0.00     0.00
eigval :       10.92    52.94    72.05    99.57   131.42   159.47
eigval :      199.37   214.98   232.71   266.24   290.89   333.88
eigval :      361.59   429.18   452.30   585.98   656.94   661.90
eigval :      687.30   698.96   735.88   762.22   779.24   873.58
eigval :      898.03   926.25   932.64   969.14   977.10   994.01
eigval :     1012.30  1018.76  1071.15  1077.18  1083.43  1117.41
eigval :     1120.83  1181.60  1198.20  1224.44  1229.49  1251.11
eigval :     1252.30  1279.98  1315.43  1409.66  1410.77  1423.25
eigval :     1438.67  1448.23  1457.49  1497.25  1498.82  1501.01
eigval :     1502.53  1579.63  1589.34  2925.76  2936.34  2948.04
eigval :     2951.05  3013.82  3014.40  3019.98  3024.55  3029.98
eigval :     3033.48  3062.07  3066.12  3074.30  3080.13  3088.02
 reduced masses (amu)
   1: 13.24   2: 11.08   3: 12.73   4: 11.30   5: 15.36   6: 12.91   7:  9.98   8:  9.96
   9:  8.56  10:  8.58  11:  9.57  12:  7.17  13:  6.55  14:  4.25  15:  8.99  16:  9.74
  17: 12.89  18: 12.99  19:  8.81  20: 21.22  21: 10.17  22: 11.17  23: 11.09  24: 12.26
  25: 13.35  26: 16.41  27:  3.60  28:  4.32  29:  5.30  30:  3.32  31:  3.55  32:  4.19
  33:  3.03  34: 10.43  35:  3.13  36:  2.96  37:  3.73  38:  4.24  39:  9.55  40:  9.38
  41:  8.00  42:  7.14  43:  5.90  44:  1.34  45:  2.00  46:  3.56  47:  3.44  48:  4.30
  49:  4.24  50:  3.35  51: 11.95  52:  2.90  53:  2.95  54:  8.58  55:  2.14  56:  2.07
  57:  8.25  58:  1.52  59:  1.53  60:  1.55  61:  1.55  62: 11.46  63: 11.45  64:  1.83
  65:  1.85  66:  1.61  67:  1.65  68:  1.91  69:  1.87  70:  1.81  71:  1.87  72:  1.43
  73:  1.41  74:  1.79  75:  1.76  76:  1.82  77:  1.86  78:  1.92
 IR intensities (km·mol⁻¹)
   1:  0.05   2:  0.22   3:  0.04   4:  0.03   5:  0.02   6:  0.15   7:  0.24   8:  0.01
   9:  0.07  10:  0.04  11:  0.30  12:  0.22  13:  0.23  14:  0.14  15:  0.05  16:  0.55
  17:  0.06  18:  0.26  19:  0.03  20:  8.55  21:  2.95  22:  0.12  23:  4.28  24:  5.99
  25:  4.40  26: 45.66  27: 13.74  28: 24.62  29: 22.28  30:  0.04  31:  0.01  32:  0.05
  33:  0.00  34:  1.84  35:  1.31  36:  4.88  37:  2.61  38:  1.38  39:  3.16  40:  2.41
  41:  0.04  42:  3.56  43:  3.30  44:  0.02  45:  0.75  46:  2.24  47:  1.01  48: 10.81
  49:  5.26  50:  1.40  51:  0.82  52:  1.46  53:  2.34  54:  1.52  55:  0.21  56:  0.37
  57:  0.44  58:  2.14  59:  2.94  60:  1.86  61:  1.00  62:  0.39  63:  0.74  64: 12.52
  65: 29.75  66: 10.99  67: 28.37  68: 48.02  69: 48.95  70: 29.95  71: 37.31  72: 15.29
  73: 22.87  74: 12.45  75:  5.32  76: 21.73  77: 77.62  78: 56.91
 Raman intensities (Ä⁴*amu⁻¹)
   1:  0.00   2:  0.00   3:  0.00   4:  0.00   5:  0.00   6:  0.00   7:  0.00   8:  0.00
   9:  0.00  10:  0.00  11:  0.00  12:  0.00  13:  0.00  14:  0.00  15:  0.00  16:  0.00
  17:  0.00  18:  0.00  19:  0.00  20:  0.00  21:  0.00  22:  0.00  23:  0.00  24:  0.00
  25:  0.00  26:  0.00  27:  0.00  28:  0.00  29:  0.00  30:  0.00  31:  0.00  32:  0.00
  33:  0.00  34:  0.00  35:  0.00  36:  0.00  37:  0.00  38:  0.00  39:  0.00  40:  0.00
  41:  0.00  42:  0.00  43:  0.00  44:  0.00  45:  0.00  46:  0.00  47:  0.00  48:  0.00
  49:  0.00  50:  0.00  51:  0.00  52:  0.00  53:  0.00  54:  0.00  55:  0.00  56:  0.00
  57:  0.00  58:  0.00  59:  0.00  60:  0.00  61:  0.00  62:  0.00  63:  0.00  64:  0.00
  65:  0.00  66:  0.00  67:  0.00  68:  0.00  69:  0.00  70:  0.00  71:  0.00  72:  0.00
  73:  0.00  74:  0.00  75:  0.00  76:  0.00  77:  0.00  78:  0.00
 output can be read by thermo (or use thermo option).
 writing <g98.out> molden fake output.
 recommended (thermochemical) frequency scaling factor: 1.0
           -------------------------------------------------
          |             Thermodynamic Functions             |
           -------------------------------------------------

Refinement of some symmetry elements was terminated before convergence was reached.
Some symmetry elements may remain unidentified.
Molecule has no symmetry elements
It seems to be the C1 point group
c1  symmetry found (for desy threshold:  0.10E+00) used in thermo

          ...................................................
          :                      SETUP                      :
          :.................................................:
          :  # frequencies                          72      :
          :  # imaginary freq.                       0      :
          :  linear?                             false      :
          :  only rotor calc.                    false      :
          :  symmetry                               c1      :
          :  rotational number                       1      :
          :  scaling factor                  1.0000000      :
          :  rotor cutoff                   50.0000000 cm⁻¹ :
          :  imag. cutoff                  -20.0000000 cm⁻¹ :
          :.................................................:

    mode    ω/cm⁻¹     T·S(HO)/kcal·mol⁻¹    T·S(FR)/kcal·mol⁻¹   T·S(vib)
   ------------------------------------------------------------------------
       1     10.92    -2.33610 (  0.23%)    -1.50648 ( 99.77%)    -1.50836
       2     52.94    -1.40261 ( 55.69%)    -1.03948 ( 44.31%)    -1.24171
       3     72.05    -1.22136 ( 81.18%)    -0.94821 ( 18.82%)    -1.16995
       4     99.57    -1.03243 ( 94.02%)    -0.85243 (  5.98%)    -1.02166
       5    131.42    -0.87214 ( 97.95%)    -0.77022 (  2.05%)    -0.87005
       6    159.47    -0.76209 ( 99.04%)    -0.71291 (  0.96%)    -0.76162
       7    199.37    -0.63771 ( 99.61%)    -0.64677 (  0.39%)    -0.63775
       8    214.98    -0.59658 ( 99.71%)    -0.62444 (  0.29%)    -0.59666
       9    232.71    -0.55395 ( 99.79%)    -0.60097 (  0.21%)    -0.55405
      10    266.24    -0.48315 ( 99.88%)    -0.56109 (  0.12%)    -0.48324
      11    290.89    -0.43792 ( 99.91%)    -0.53487 (  0.09%)    -0.43800
   ------------------------------------------------------------------------

   temp. (K)  partition function   enthalpy   heat capacity  entropy
                                   cal/mol     cal/K/mol   cal/K/mol   J/K/mol
 298.15  VIB  0.634E+05             6272.624     39.256     39.480
         ROT  0.122E+07              888.752      2.981     30.836
         INT  0.775E+11             7161.377     42.236     70.317
         TR   0.207E+28             1481.254      4.968     41.214
         TOT                        8642.6307    47.2046   111.5303   466.6430

       T/K    H(0)-H(T)+PV         H(T)/Eh          T*S/Eh         G(T)/Eh
   ------------------------------------------------------------------------
    298.15    0.137729E-01    0.232261E+00    0.529917E-01    0.179269E+00
   ------------------------------------------------------------------------

         :::::::::::::::::::::::::::::::::::::::::::::::::::::
         ::                  THERMODYNAMIC                  ::
         :::::::::::::::::::::::::::::::::::::::::::::::::::::
         :: total free energy         -31.376756059646 Eh   ::
         ::.................................................::
         :: total energy              -31.556024933601 Eh   ::
         :: zero point energy           0.218487633379 Eh   ::
         :: G(RRHO) w/o ZPVE           -0.039218759424 Eh   ::
         :: G(RRHO) contrib.            0.179268873955 Eh   ::
         :::::::::::::::::::::::::::::::::::::::::::::::::::::

optimized geometry written to: xtbopt.xyz


           -------------------------------------------------
          | TOTAL ENERGY              -31.556024933601 Eh   |
          | TOTAL ENTHALPY            -31.323764391511 Eh   |
          | TOTAL FREE ENERGY         -31.376756059646 Eh   |
          | GRADIENT NORM               0.000022642377 Eh/α |
          | HOMO-LUMO GAP               3.666295167904 eV   |
           -------------------------------------------------

------------------------------------------------------------------------
 * finished run on 2025/07/14 at 11:34:07.647     
------------------------------------------------------------------------
 total:
 * wall-time:     0 d,  0 h,  0 min,  8.780 sec
 *  cpu-time:     0 d,  0 h,  1 min, 32.144 sec
 * ratio c/w:    10.495 speedup
 SCF:
 * wall-time:     0 d,  0 h,  0 min,  0.088 sec
 *  cpu-time:     0 d,  0 h,  0 min,  1.050 sec
 * ratio c/w:    11.968 speedup
 ANC optimizer:
 * wall-time:     0 d,  0 h,  0 min,  5.370 sec
 *  cpu-time:     0 d,  0 h,  1 min,  4.303 sec
 * ratio c/w:    11.975 speedup
 analytical hessian:
 * wall-time:     0 d,  0 h,  0 min,  3.311 sec
 *  cpu-time:     0 d,  0 h,  0 min, 26.688 sec
 * ratio c/w:     8.060 speedup

