      -----------------------------------------------------------      
     |                   =====================                   |     
     |                           x T B                           |     
     |                   =====================                   |     
     |                         S. Grimme                         |     
     |          Mulliken Center for Theoretical Chemistry        |     
     |                    University of Bonn                     |     
      -----------------------------------------------------------      

   * xtb version 6.7.0 (08769fc) compiled by 'albert@albert-system' on 2024-03-04

   xtb is free software: you can redistribute it and/or modify it under
   the terms of the GNU Lesser General Public License as published by
   the Free Software Foundation, either version 3 of the License, or
   (at your option) any later version.
   
   xtb is distributed in the hope that it will be useful,
   but WITHOUT ANY WARRANTY; without even the implied warranty of
   MERCHANTABILITY or FITNESS FOR A PARTICULAR PURPOSE.  See the
   GNU Lesser General Public License for more details.
   
   Cite this work as:
   * C. Bannwarth, E. Caldeweyher, S. Ehlert, A. Hansen, P. Pracht,
     J. Seibert, S. Spicher, S. Grimme, WIREs Comput. Mol. Sci., 2020, 11,
     e01493. DOI: 10.1002/wcms.1493
   
   for GFN2-xTB:
   * C. Bannwarth, S. Ehlert and S. Grimme., J. Chem. Theory Comput., 2019,
     15, 1652-1671. DOI: 10.1021/acs.jctc.8b01176
   for GFN1-xTB:
   * S. Grimme, C. Bannwarth, P. Shushkov, J. Chem. Theory Comput., 2017,
     13, 1989-2009. DOI: 10.1021/acs.jctc.7b00118
   for GFN0-xTB:
   * P. Pracht, E. Caldeweyher, S. Ehlert, S. Grimme, ChemRxiv, 2019, preprint.
     DOI: 10.26434/chemrxiv.8326202.v1
   for GFN-FF:
   * S. Spicher and S. Grimme, Angew. Chem. Int. Ed., 2020, 59, 15665-15673.
     DOI: 10.1002/anie.202004239
   
   for ALPB and GBSA implicit solvation:
   * S. Ehlert, M. Stahn, S. Spicher, S. Grimme, J. Chem. Theory Comput.,
     2021, 17, 4250-4261. DOI: 10.1021/acs.jctc.1c00471
   
   for ddCOSMO and CPCM-X implicit solvation:
   * M. Stahn, S. Ehlert, S. Grimme, J. Phys. Chem. A,
     2023, XX, XXXX-XXXX. DOI: 10.1021/acs.jpca.3c04382
   
   for DFT-D4:
   * E. Caldeweyher, C. Bannwarth and S. Grimme, J. Chem. Phys., 2017,
     147, 034112. DOI: 10.1063/1.4993215
   * E. Caldeweyher, S. Ehlert, A. Hansen, H. Neugebauer, S. Spicher,
     C. Bannwarth and S. Grimme, J. Chem. Phys., 2019, 150, 154122.
     DOI: 10.1063/1.5090222
   * E. Caldeweyher, J.-M. Mewes, S. Ehlert and S. Grimme, Phys. Chem. Chem. Phys.
     2020, 22, 8499-8512. DOI: 10.1039/D0CP00502A
   
   for sTDA-xTB:
   * S. Grimme and C. Bannwarth, J. Chem. Phys., 2016, 145, 054103.
     DOI: 10.1063/1.4959605
   
   in the mass-spec context:
   * V. Asgeirsson, C. Bauer and S. Grimme, Chem. Sci., 2017, 8, 4879.
     DOI: 10.1039/c7sc00601b
   * J. Koopman and S. Grimme, ACS Omega 2019, 4, 12, 15120-15133.
     DOI: 10.1021/acsomega.9b02011
   
   for metadynamics refer to:
   * S. Grimme, J. Chem. Theory Comput., 2019, 155, 2847-2862
     DOI: 10.1021/acs.jctc.9b00143
   
   for SPH calculations refer to:
   * S. Spicher and S. Grimme, J. Chem. Theory Comput., 2021, 17, 1701-1714
     DOI: 10.1021/acs.jctc.0c01306
   
   for ONIOM refer to:
   * C. Plett, A. Katbashev, S. Ehlert, S. Grimme, M. Bursch,
     Phys. Chem. Chem. Phys., 2023, 25, 17860-17868. DOI: 10.1039/D3CP02178E
   
   for DIPRO refer to:
   * J. Kohn, N. Gildemeister, S. Grimme, D. Fazzi, A. Hansen,
     J. Chem. Phys., 2023, just accepted.
   
   for PTB refer to:
   * S. Grimme, M. Mueller, A. Hansen, J. Chem. Phys., 2023, 158, 124111.
     DOI: 10.1063/5.0137838
   
   with help from (in alphabetical order)
   P. Atkinson, C. Bannwarth, F. Bohle, G. Brandenburg, E. Caldeweyher
   M. Checinski, S. Dohm, S. Ehlert, S. Ehrlich, I. Gerasimov, C. Hölzer
   A. Katbashev, J. Kohn, J. Koopman, C. Lavigne, S. Lehtola, F. März, M. Müller,
   F. Musil, H. Neugebauer, J. Pisarek, C. Plett, P. Pracht, F. Pultar,
   J. Seibert, P. Shushkov, S. Spicher, M. Stahn, M. Steiner, T. Strunk,
   J. Stückrath, T. Rose, and J. Unsleber
   
 * started run on 2025/07/14 at 11:32:52.963     
   ID    Z sym.   atoms
    1   15 P      1
    2    6 C      2, 5, 9-14, 20, 23
    3    1 H      3, 4, 6-8, 15-19, 21, 22, 24-26

           -------------------------------------------------
          |                Calculation Setup                |
           -------------------------------------------------

          program call               : /home/minenky/programs/xtb/xtb-dist/bin/xtb m1_00_PEt2Ph-PBE0-D3-TZ-uniMM_43.xyz --charge 0 --T --ohess extreme --cycles 5000 --acc 0.01 --iterations 5000
          coordinate file            : m1_00_PEt2Ph-PBE0-D3-TZ-uniMM_43.xyz
          omp threads                :                    12

########################################################################
[WARNING] Please study the warnings concerning your input carefully
-1- prog_main_parseArguments: Unknown option '--T' provided
########################################################################

           -------------------------------------------------
          |                 G F N 2 - x T B                 |
           -------------------------------------------------

        Reference                      10.1021/acs.jctc.8b01176
      * Hamiltonian:
        H0-scaling (s, p, d)           1.850000    2.230000    2.230000
        zeta-weighting                 0.500000
      * Dispersion:
        s8                             2.700000
        a1                             0.520000
        a2                             5.000000
        s9                             5.000000
      * Repulsion:
        kExp                           1.500000    1.000000
        rExp                           1.000000
      * Coulomb:
        alpha                          2.000000
        third order                    shell-resolved
        anisotropic                    true
        a3                             3.000000
        a5                             4.000000
        cn-shift                       1.200000
        cn-exp                         4.000000
        max-rad                        5.000000


          ...................................................
          :                      SETUP                      :
          :.................................................:
          :  # basis functions                  65          :
          :  # atomic orbitals                  64          :
          :  # shells                           38          :
          :  # electrons                        60          :
          :  max. iterations                  5000          :
          :  Hamiltonian                  GFN2-xTB          :
          :  restarted?                      false          :
          :  GBSA solvation                  false          :
          :  PC potential                    false          :
          :  electronic temp.          300.0000000     K    :
          :  accuracy                    0.0100000          :
          :  -> integral cutoff          0.4500000E+02      :
          :  -> integral neglect         0.1000000E-09      :
          :  -> SCF convergence          0.1000000E-07 Eh   :
          :  -> wf. convergence          0.1000000E-05 e    :
          :  Broyden damping             0.4000000          :
          :  net charge                          0          :
          :  unpaired electrons                  0          :
          ...................................................

 iter      E             dE          RMSdq      gap      omega  full diag
   1    -32.0070388 -0.320070E+02  0.355E+00    4.02       0.0  T
   2    -32.0515546 -0.445159E-01  0.209E+00    3.48       1.0  T
   3    -32.0516546 -0.999141E-04  0.865E-01    3.20       1.0  T
   4    -32.0522573 -0.602732E-03  0.286E-01    3.22       1.0  T
   5    -32.0536198 -0.136254E-02  0.111E-01    3.26       1.0  T
   6    -32.0537838 -0.163960E-03  0.435E-02    3.25       1.0  T
   7    -32.0538028 -0.190318E-04  0.163E-02    3.26       1.2  T
   8    -32.0538040 -0.113190E-05  0.668E-03    3.26       2.9  T
   9    -32.0538045 -0.517442E-06  0.139E-03    3.26      14.1  T
  10    -32.0538045 -0.291167E-07  0.574E-04    3.26      34.2  T
  11    -32.0538045 -0.732243E-09  0.282E-04    3.26      69.6  T
  12    -32.0538045 -0.628191E-09  0.682E-05    3.26     287.8  T
  13    -32.0538045 -0.595435E-11  0.257E-05    3.26     762.1  T
  14    -32.0538045 -0.107292E-11  0.104E-05    3.26    1879.4  T
  15    -32.0538045 -0.116529E-11  0.229E-06    3.26    8556.1  T
  16    -32.0538045 -0.781597E-13  0.995E-07    3.26   19705.0  T

   *** convergence criteria satisfied after 16 iterations ***

         #    Occupation            Energy/Eh            Energy/eV
      -------------------------------------------------------------
         1        2.0000           -0.6597855             -17.9537
       ...           ...                  ...                  ...
        24        2.0000           -0.4354526             -11.8493
        25        2.0000           -0.4234983             -11.5240
        26        2.0000           -0.4207654             -11.4496
        27        2.0000           -0.4080300             -11.1031
        28        2.0000           -0.4015271             -10.9261
        29        2.0000           -0.3987007             -10.8492
        30        2.0000           -0.3546172              -9.6496 (HOMO)
        31                         -0.2349717              -6.3939 (LUMO)
        32                         -0.2238295              -6.0907
        33                         -0.1586061              -4.3159
        34                         -0.1375373              -3.7426
        35                         -0.0890740              -2.4238
       ...                                ...                  ...
        64                          0.7725076              21.0210
      -------------------------------------------------------------
                  HL-Gap            0.1196456 Eh            3.2557 eV
             Fermi-level           -0.2947945 Eh           -8.0218 eV

 SCC (total)                   0 d,  0 h,  0 min,  0.087 sec
 SCC setup                      ...        0 min,  0.000 sec (  0.156%)
 Dispersion                     ...        0 min,  0.000 sec (  0.175%)
 classical contributions        ...        0 min,  0.000 sec (  0.015%)
 integral evaluation            ...        0 min,  0.002 sec (  2.158%)
 iterations                     ...        0 min,  0.082 sec ( 95.283%)
 molecular gradient             ...        0 min,  0.002 sec (  2.103%)
 printout                       ...        0 min,  0.000 sec (  0.088%)

         :::::::::::::::::::::::::::::::::::::::::::::::::::::
         ::                     SUMMARY                     ::
         :::::::::::::::::::::::::::::::::::::::::::::::::::::
         :: total energy             -31.538907036424 Eh    ::
         :: gradient norm              0.050502027046 Eh/a0 ::
         :: HOMO-LUMO gap              3.255721416331 eV    ::
         ::.................................................::
         :: SCC energy               -32.053612387747 Eh    ::
         :: -> isotropic ES            0.004245379702 Eh    ::
         :: -> anisotropic ES          0.005914337568 Eh    ::
         :: -> anisotropic XC          0.022431299374 Eh    ::
         :: -> dispersion             -0.024049561163 Eh    ::
         :: repulsion energy           0.514705351323 Eh    ::
         :: add. restraining           0.000000000000 Eh    ::
         :: total charge              -0.000000000000 e     ::
         :::::::::::::::::::::::::::::::::::::::::::::::::::::

      ----------------------------------------------------------- 
     |                   =====================                   |
     |                        A N C O P T                        |
     |                   =====================                   |
     |               Approximate Normal Coordinate               |
     |                Rational Function Optimizer                |
      ----------------------------------------------------------- 
      ----------------------------------------------------------- 
     |                   =====================                   |
     |                        A N C O P T                        |
     |                   =====================                   |
     |               Approximate Normal Coordinate               |
     |                Rational Function Optimizer                |
      ----------------------------------------------------------- 

          ...................................................
          :                      SETUP                      :
          :.................................................:
          :   optimization level           extreme          :
          :   max. optcycles                  5000          :
          :   ANC micro-cycles                  20          :
          :   degrees of freedom                72          :
          :.................................................:
          :   RF solver                   davidson          :
          :   write xtbopt.log                true          :
          :   linear?                        false          :
          :   energy convergence         0.5000000E-07 Eh   :
          :   grad. convergence          0.5000000E-04 Eh/α :
          :   maxmium RF displ.          1.0000000          :
          :   Hlow (freq-cutoff)         0.1000000E-01      :
          :   Hmax (freq-cutoff)         5.0000000          :
          :   S6 in model hess.         20.0000000          :
          ...................................................

generating ANC from model Hessian ...
Using Lindh-Hessian (1995)
 Shifting diagonal of input Hessian by   1.305563988295652E-002
 Lowest  eigenvalues of input Hessian
    0.010000    0.000000    0.000000    0.000000    0.000000    0.000000
    0.000000    0.014027    0.014497    0.014670    0.015039    0.015938
    0.017979    0.020803    0.022428    0.023508    0.026617    0.026971
 Highest eigenvalues
    1.350722    1.538297    1.565880    1.867447    1.969435    1.989593
 

........................................................................
.............................. CYCLE    1 ..............................
........................................................................

 iter      E             dE          RMSdq      gap      omega  full diag
   1    -32.0538045 -0.320538E+02  0.411E-07    3.26       0.0  T
   2    -32.0538045 -0.213163E-13  0.257E-07    3.26   76295.2  T
   3    -32.0538045 -0.710543E-14  0.156E-07    3.26  100000.0  T
     SCC iter.                  ...        0 min,  0.073 sec
     gradient                   ...        0 min,  0.002 sec
 * total energy  :   -31.5389070 Eh     change        0.2131628E-13 Eh
   gradient norm :     0.0505020 Eh/α   predicted     0.0000000E+00 (-100.00%)
   displ. norm   :     0.5283233 α      lambda       -0.1263379E-01
   maximum displ.:     0.4392282 α      in ANC's #1, #7, #11, ...

........................................................................
.............................. CYCLE    2 ..............................
........................................................................

 iter      E             dE          RMSdq      gap      omega  full diag
   1    -32.0615812 -0.320616E+02  0.415E-01    3.46       0.0  T
   2    -32.0618080 -0.226880E-03  0.208E-01    3.50       1.0  T
   3    -32.0618173 -0.922345E-05  0.750E-02    3.54       1.0  T
   4    -32.0618204 -0.311409E-05  0.368E-02    3.54       1.0  T
   5    -32.0618397 -0.193406E-04  0.910E-03    3.54       2.2  T
   6    -32.0618411 -0.134944E-05  0.345E-03    3.54       5.7  T
   7    -32.0618411 -0.206321E-07  0.147E-03    3.54      13.4  T
   8    -32.0618411 -0.177515E-07  0.499E-04    3.54      39.3  T
   9    -32.0618411 -0.343486E-08  0.158E-04    3.54     123.8  T
  10    -32.0618411 -0.236973E-09  0.789E-05    3.54     248.6  T
  11    -32.0618411 -0.268869E-10  0.329E-05    3.54     595.9  T
  12    -32.0618411 -0.374456E-11  0.750E-06    3.54    2614.9  T
  13    -32.0618411 -0.106581E-12  0.365E-06    3.54    5368.5  T
     SCC iter.                  ...        0 min,  0.080 sec
     gradient                   ...        0 min,  0.002 sec
 * total energy  :   -31.5462196 Eh     change       -0.7312612E-02 Eh
   gradient norm :     0.0178254 Eh/α   predicted    -0.8080171E-02 (  10.50%)
   displ. norm   :     0.3177157 α      lambda       -0.2416048E-02
   maximum displ.:     0.2201165 α      in ANC's #1, #6, #10, ...

........................................................................
.............................. CYCLE    3 ..............................
........................................................................

 iter      E             dE          RMSdq      gap      omega  full diag
   1    -32.0651296 -0.320651E+02  0.158E-01    3.54       0.0  T
   2    -32.0651351 -0.557129E-05  0.928E-02    3.54       1.0  T
   3    -32.0651321  0.300583E-05  0.183E-02    3.54       1.1  T
   4    -32.0651360 -0.385180E-05  0.506E-03    3.54       3.9  T
   5    -32.0651363 -0.281975E-06  0.218E-03    3.54       9.0  T
   6    -32.0651363 -0.537580E-07  0.864E-04    3.54      22.7  T
   7    -32.0651363 -0.443116E-09  0.305E-04    3.54      64.4  T
   8    -32.0651363 -0.379153E-09  0.960E-05    3.54     204.2  T
   9    -32.0651363 -0.767031E-10  0.423E-05    3.54     464.0  T
  10    -32.0651363 -0.895284E-11  0.201E-05    3.54     974.0  T
  11    -32.0651363 -0.390799E-11  0.879E-06    3.54    2231.7  T
  12    -32.0651363 -0.433431E-12  0.260E-06    3.54    7531.2  T
     SCC iter.                  ...        0 min,  0.075 sec
     gradient                   ...        0 min,  0.002 sec
 * total energy  :   -31.5479537 Eh     change       -0.1734053E-02 Eh
   gradient norm :     0.0073968 Eh/α   predicted    -0.1330053E-02 ( -23.30%)
   displ. norm   :     0.3615484 α      lambda       -0.1345581E-02
   maximum displ.:     0.2476487 α      in ANC's #1, #7, #5, ...

........................................................................
.............................. CYCLE    4 ..............................
........................................................................

 iter      E             dE          RMSdq      gap      omega  full diag
   1    -32.0665046 -0.320665E+02  0.136E-01    3.55       0.0  T
   2    -32.0665071 -0.247708E-05  0.807E-02    3.55       1.0  T
   3    -32.0665033  0.383778E-05  0.153E-02    3.55       1.3  T
   4    -32.0665079 -0.461640E-05  0.352E-03    3.55       5.6  T
   5    -32.0665080 -0.892967E-07  0.141E-03    3.55      13.9  T
   6    -32.0665080 -0.181717E-07  0.626E-04    3.55      31.3  T
   7    -32.0665080 -0.984492E-09  0.293E-04    3.55      66.8  T
   8    -32.0665080 -0.805002E-09  0.962E-05    3.55     203.9  T
   9    -32.0665080 -0.102453E-09  0.340E-05    3.55     577.4  T
  10    -32.0665080 -0.147793E-11  0.184E-05    3.55    1066.6  T
  11    -32.0665080 -0.233058E-11  0.539E-06    3.55    3639.9  T
  12    -32.0665080 -0.177636E-12  0.163E-06    3.55   12020.8  T
     SCC iter.                  ...        0 min,  0.075 sec
     gradient                   ...        0 min,  0.002 sec
 * total energy  :   -31.5488902 Eh     change       -0.9365261E-03 Eh
   gradient norm :     0.0056484 Eh/α   predicted    -0.7608619E-03 ( -18.76%)
   displ. norm   :     0.3320957 α      lambda       -0.6786790E-03
   maximum displ.:     0.2083784 α      in ANC's #1, #7, #5, ...

........................................................................
.............................. CYCLE    5 ..............................
........................................................................

 iter      E             dE          RMSdq      gap      omega  full diag
   1    -32.0672147 -0.320672E+02  0.118E-01    3.55       0.0  T
   2    -32.0672161 -0.133888E-05  0.683E-02    3.55       1.0  T
   3    -32.0672138  0.223998E-05  0.113E-02    3.55       1.7  T
   4    -32.0672166 -0.272065E-05  0.248E-03    3.55       7.9  T
   5    -32.0672166 -0.521705E-07  0.106E-03    3.55      18.5  T
   6    -32.0672166 -0.376475E-08  0.507E-04    3.55      38.7  T
   7    -32.0672166 -0.562331E-09  0.159E-04    3.55     123.6  T
   8    -32.0672166 -0.367855E-09  0.598E-05    3.55     327.9  T
   9    -32.0672166 -0.345821E-10  0.302E-05    3.55     648.6  T
  10    -32.0672166 -0.763833E-11  0.119E-05    3.55    1650.3  T
  11    -32.0672166 -0.362377E-12  0.375E-06    3.55    5231.4  T
  12    -32.0672166 -0.213163E-13  0.123E-06    3.55   15933.2  T
     SCC iter.                  ...        0 min,  0.074 sec
     gradient                   ...        0 min,  0.002 sec
 * total energy  :   -31.5494030 Eh     change       -0.5127841E-03 Eh
   gradient norm :     0.0060375 Eh/α   predicted    -0.3767676E-03 ( -26.53%)
   displ. norm   :     0.4019225 α      lambda       -0.6221100E-03
   maximum displ.:     0.2400005 α      in ANC's #7, #1, #5, ...

........................................................................
.............................. CYCLE    6 ..............................
........................................................................

 iter      E             dE          RMSdq      gap      omega  full diag
   1    -32.0673659 -0.320674E+02  0.145E-01    3.55       0.0  T
   2    -32.0673684 -0.244083E-05  0.829E-02    3.55       1.0  T
   3    -32.0673670  0.138893E-05  0.116E-02    3.55       1.7  T
   4    -32.0673688 -0.177851E-05  0.357E-03    3.55       5.5  T
   5    -32.0673689 -0.180950E-06  0.143E-03    3.55      13.7  T
   6    -32.0673690 -0.116800E-07  0.625E-04    3.55      31.4  T
   7    -32.0673690  0.252506E-09  0.184E-04    3.55     106.4  T
   8    -32.0673690 -0.454868E-09  0.611E-05    3.55     320.8  T
   9    -32.0673690 -0.278177E-10  0.270E-05    3.55     725.8  T
  10    -32.0673690 -0.710543E-11  0.132E-05    3.55    1482.6  T
  11    -32.0673690 -0.135003E-11  0.373E-06    3.55    5252.9  T
  12    -32.0673690 -0.213163E-13  0.138E-06    3.55   14247.6  T
     SCC iter.                  ...        0 min,  0.075 sec
     gradient                   ...        0 min,  0.002 sec
 * total energy  :   -31.5498830 Eh     change       -0.4799387E-03 Eh
   gradient norm :     0.0050691 Eh/α   predicted    -0.3613115E-03 ( -24.72%)
   displ. norm   :     0.4597397 α      lambda       -0.5988587E-03
   maximum displ.:     0.2675626 α      in ANC's #7, #1, #5, ...

........................................................................
.............................. CYCLE    7 ..............................
........................................................................

 iter      E             dE          RMSdq      gap      omega  full diag
   1    -32.0671844 -0.320672E+02  0.165E-01    3.55       0.0  T
   2    -32.0671877 -0.336880E-05  0.942E-02    3.55       1.0  T
   3    -32.0671869  0.844283E-06  0.128E-02    3.55       1.5  T
   4    -32.0671882 -0.128368E-05  0.366E-03    3.55       5.4  T
   5    -32.0671883 -0.147888E-06  0.149E-03    3.55      13.2  T
   6    -32.0671883 -0.314200E-07  0.641E-04    3.55      30.6  T
   7    -32.0671883 -0.425494E-09  0.141E-04    3.55     138.9  T
   8    -32.0671883 -0.258673E-09  0.583E-05    3.55     336.5  T
   9    -32.0671883 -0.253024E-10  0.262E-05    3.55     748.8  T
  10    -32.0671883 -0.466116E-11  0.916E-06    3.55    2142.1  T
  11    -32.0671883 -0.116529E-11  0.286E-06    3.55    6858.7  T
     SCC iter.                  ...        0 min,  0.079 sec
     gradient                   ...        0 min,  0.002 sec
 * total energy  :   -31.5503514 Eh     change       -0.4684824E-03 Eh
   gradient norm :     0.0056516 Eh/α   predicted    -0.3627197E-03 ( -22.58%)
   displ. norm   :     0.4906822 α      lambda       -0.5899800E-03
   maximum displ.:     0.2527934 α      in ANC's #5, #7, #1, ...

........................................................................
.............................. CYCLE    8 ..............................
........................................................................

 iter      E             dE          RMSdq      gap      omega  full diag
   1    -32.0672257 -0.320672E+02  0.166E-01    3.55       0.0  T
   2    -32.0672286 -0.288525E-05  0.958E-02    3.55       1.0  T
   3    -32.0672282  0.417414E-06  0.115E-02    3.55       1.7  T
   4    -32.0672290 -0.838537E-06  0.347E-03    3.55       5.6  T
   5    -32.0672291 -0.841790E-07  0.136E-03    3.55      14.5  T
   6    -32.0672292 -0.328875E-07  0.683E-04    3.55      28.7  T
   7    -32.0672292 -0.219648E-08  0.163E-04    3.55     120.3  T
   8    -32.0672292 -0.399076E-09  0.616E-05    3.55     318.2  T
   9    -32.0672292 -0.315907E-10  0.239E-05    3.55     820.7  T
  10    -32.0672292 -0.252953E-11  0.805E-06    3.55    2437.5  T
  11    -32.0672292 -0.213163E-12  0.237E-06    3.55    8274.8  T
     SCC iter.                  ...        0 min,  0.075 sec
     gradient                   ...        0 min,  0.002 sec
 * total energy  :   -31.5508174 Eh     change       -0.4660068E-03 Eh
   gradient norm :     0.0084640 Eh/α   predicted    -0.3660236E-03 ( -21.46%)
   displ. norm   :     0.4967531 α      lambda       -0.6109778E-03
   maximum displ.:     0.2663994 α      in ANC's #5, #1, #6, ...

........................................................................
.............................. CYCLE    9 ..............................
........................................................................

 iter      E             dE          RMSdq      gap      omega  full diag
   1    -32.0680203 -0.320680E+02  0.152E-01    3.56       0.0  T
   2    -32.0680218 -0.152444E-05  0.893E-02    3.57       1.0  T
   3    -32.0680213  0.511421E-06  0.908E-03    3.57       2.2  T
   4    -32.0680221 -0.819010E-06  0.324E-03    3.57       6.1  T
   5    -32.0680222 -0.903938E-07  0.125E-03    3.57      15.7  T
   6    -32.0680223 -0.256692E-07  0.607E-04    3.57      32.3  T
   7    -32.0680223 -0.167810E-08  0.133E-04    3.57     147.9  T
   8    -32.0680223 -0.259405E-09  0.466E-05    3.57     420.7  T
   9    -32.0680223 -0.129603E-10  0.238E-05    3.57     824.9  T
  10    -32.0680223 -0.229505E-11  0.640E-06    3.57    3063.8  T
  11    -32.0680223 -0.923706E-13  0.217E-06    3.57    9049.3  T
     SCC iter.                  ...        0 min,  0.075 sec
     gradient                   ...        0 min,  0.002 sec
 * total energy  :   -31.5513076 Eh     change       -0.4901611E-03 Eh
   gradient norm :     0.0103249 Eh/α   predicted    -0.3808903E-03 ( -22.29%)
   displ. norm   :     0.5088617 α      lambda       -0.6699550E-03
   maximum displ.:     0.2769230 α      in ANC's #5, #1, #6, ...

........................................................................
.............................. CYCLE   10 ..............................
........................................................................

 iter      E             dE          RMSdq      gap      omega  full diag
   1    -32.0689974 -0.320690E+02  0.141E-01    3.58       0.0  T
   2    -32.0689983 -0.835018E-06  0.838E-02    3.58       1.0  T
   3    -32.0689979  0.366565E-06  0.724E-03    3.58       2.7  T
   4    -32.0689986 -0.662828E-06  0.250E-03    3.58       7.8  T
   5    -32.0689986 -0.348109E-07  0.116E-03    3.58      16.8  T
   6    -32.0689986 -0.171337E-07  0.446E-04    3.58      44.0  T
   7    -32.0689986 -0.599641E-09  0.927E-05    3.58     211.6  T
   8    -32.0689986 -0.908713E-10  0.417E-05    3.58     470.4  T
   9    -32.0689986 -0.106866E-10  0.188E-05    3.58    1045.2  T
  10    -32.0689986 -0.133582E-11  0.564E-06    3.58    3478.8  T
  11    -32.0689986 -0.106581E-12  0.283E-06    3.58    6923.8  T
     SCC iter.                  ...        0 min,  0.075 sec
     gradient                   ...        0 min,  0.002 sec
 * total energy  :   -31.5518527 Eh     change       -0.5451417E-03 Eh
   gradient norm :     0.0100000 Eh/α   predicted    -0.4217213E-03 ( -22.64%)
   displ. norm   :     0.5417794 α      lambda       -0.7266725E-03
   maximum displ.:     0.3032150 α      in ANC's #5, #1, #6, ...

........................................................................
.............................. CYCLE   11 ..............................
........................................................................

 iter      E             dE          RMSdq      gap      omega  full diag
   1    -32.0689505 -0.320690E+02  0.147E-01    3.59       0.0  T
   2    -32.0689518 -0.123467E-05  0.868E-02    3.59       1.0  T
   3    -32.0689511  0.623263E-06  0.867E-03    3.60       2.3  T
   4    -32.0689521 -0.976783E-06  0.275E-03    3.59       7.1  T
   5    -32.0689522 -0.436980E-07  0.137E-03    3.59      14.3  T
   6    -32.0689522 -0.332371E-07  0.574E-04    3.59      34.2  T
   7    -32.0689522 -0.478430E-09  0.156E-04    3.59     125.7  T
   8    -32.0689522 -0.117026E-09  0.625E-05    3.59     313.7  T
   9    -32.0689522 -0.557563E-10  0.186E-05    3.59    1051.6  T
  10    -32.0689522 -0.162714E-11  0.912E-06    3.59    2149.8  T
  11    -32.0689522 -0.554223E-12  0.386E-06    3.59    5076.2  T
     SCC iter.                  ...        0 min,  0.075 sec
     gradient                   ...        0 min,  0.002 sec
 * total energy  :   -31.5524459 Eh     change       -0.5931683E-03 Eh
   gradient norm :     0.0092637 Eh/α   predicted    -0.4699900E-03 ( -20.77%)
   displ. norm   :     0.5002134 α      lambda       -0.7834032E-03
   maximum displ.:     0.2675170 α      in ANC's #5, #1, #6, ...

........................................................................
.............................. CYCLE   12 ..............................
........................................................................

 iter      E             dE          RMSdq      gap      omega  full diag
   1    -32.0731579 -0.320732E+02  0.142E-01    3.61       0.0  T
   2    -32.0731600 -0.210901E-05  0.836E-02    3.61       1.0  T
   3    -32.0731596  0.347095E-06  0.102E-02    3.62       1.9  T
   4    -32.0731604 -0.764882E-06  0.279E-03    3.61       7.0  T
   5    -32.0731604  0.633840E-09  0.139E-03    3.61      14.1  T
   6    -32.0731604 -0.334650E-07  0.635E-04    3.61      30.9  T
   7    -32.0731604 -0.617412E-09  0.179E-04    3.61     109.7  T
   8    -32.0731604 -0.451848E-09  0.591E-05    3.61     331.8  T
   9    -32.0731604 -0.278888E-10  0.311E-05    3.61     630.8  T
  10    -32.0731604 -0.355271E-11  0.122E-05    3.61    1601.7  T
  11    -32.0731604 -0.109424E-11  0.451E-06    3.61    4351.6  T
  12    -32.0731604 -0.568434E-13  0.186E-06    3.61   10563.0  T
     SCC iter.                  ...        0 min,  0.076 sec
     gradient                   ...        0 min,  0.002 sec
 * total energy  :   -31.5530109 Eh     change       -0.5650088E-03 Eh
   gradient norm :     0.0089400 Eh/α   predicted    -0.4897172E-03 ( -13.33%)
   displ. norm   :     0.7963260 α      lambda       -0.9211164E-03
   maximum displ.:     0.4570260 α      in ANC's #5, #1, #6, ...

........................................................................
.............................. CYCLE   13 ..............................
........................................................................

 iter      E             dE          RMSdq      gap      omega  full diag
   1    -32.0587399 -0.320587E+02  0.239E-01    3.61       0.0  T
   2    -32.0587550 -0.151185E-04  0.137E-01    3.62       1.0  T
   3    -32.0587532  0.183140E-05  0.326E-02    3.62       1.0  T
   4    -32.0587571 -0.388032E-05  0.656E-03    3.62       3.0  T
   5    -32.0587571  0.425537E-09  0.473E-03    3.62       4.1  T
   6    -32.0587573 -0.250170E-06  0.175E-03    3.62      11.2  T
   7    -32.0587574 -0.179036E-07  0.555E-04    3.62      35.3  T
   8    -32.0587574 -0.129781E-09  0.169E-04    3.62     116.4  T
   9    -32.0587574 -0.170090E-09  0.861E-05    3.62     227.8  T
  10    -32.0587574 -0.145874E-10  0.298E-05    3.62     658.8  T
  11    -32.0587574 -0.576250E-11  0.107E-05    3.62    1827.0  T
  12    -32.0587574 -0.397904E-12  0.282E-06    3.62    6951.8  T
  13    -32.0587574 -0.781597E-13  0.128E-06    3.62   15263.4  T
     SCC iter.                  ...        0 min,  0.077 sec
     gradient                   ...        0 min,  0.002 sec
 * total energy  :   -31.5531292 Eh     change       -0.1182529E-03 Eh
   gradient norm :     0.0207537 Eh/α   predicted    -0.7526331E-03 ( 536.46%)
   displ. norm   :     0.1541224 α      lambda       -0.1222765E-02
   maximum displ.:     0.0667240 α      in ANC's #6, #7, #3, ...

........................................................................
.............................. CYCLE   14 ..............................
........................................................................

 iter      E             dE          RMSdq      gap      omega  full diag
   1    -32.0707978 -0.320708E+02  0.935E-02    3.63       0.0  T
   2    -32.0708040 -0.622714E-05  0.519E-02    3.63       1.0  T
   3    -32.0708041 -0.255661E-07  0.202E-02    3.63       1.0  T
   4    -32.0708048 -0.750618E-06  0.462E-03    3.63       4.2  T
   5    -32.0708048  0.398369E-08  0.281E-03    3.63       7.0  T
   6    -32.0708048 -0.132109E-07  0.706E-04    3.63      27.8  T
   7    -32.0708048 -0.536913E-08  0.245E-04    3.63      80.0  T
   8    -32.0708048 -0.155190E-09  0.111E-04    3.63     176.1  T
   9    -32.0708048 -0.603535E-10  0.397E-05    3.63     494.1  T
  10    -32.0708048 -0.213163E-11  0.134E-05    3.63    1465.2  T
  11    -32.0708048 -0.183320E-11  0.354E-06    3.63    5534.0  T
  12    -32.0708048 -0.852651E-13  0.171E-06    3.63   11472.4  T
     SCC iter.                  ...        0 min,  0.075 sec
     gradient                   ...        0 min,  0.002 sec
 * total energy  :   -31.5538346 Eh     change       -0.7054681E-03 Eh
   gradient norm :     0.0086153 Eh/α   predicted    -0.6259041E-03 ( -11.28%)
   displ. norm   :     0.3538547 α      lambda       -0.5841884E-03
   maximum displ.:     0.1532241 α      in ANC's #2, #6, #5, ...

........................................................................
.............................. CYCLE   15 ..............................
........................................................................

 iter      E             dE          RMSdq      gap      omega  full diag
   1    -32.0746869 -0.320747E+02  0.108E-01    3.64       0.0  T
   2    -32.0746907 -0.371311E-05  0.643E-02    3.63       1.0  T
   3    -32.0746902  0.480348E-06  0.185E-02    3.63       1.1  T
   4    -32.0746913 -0.109457E-05  0.335E-03    3.63       5.9  T
   5    -32.0746913  0.831783E-09  0.189E-03    3.63      10.4  T
   6    -32.0746913 -0.140957E-07  0.801E-04    3.63      24.5  T
   7    -32.0746913 -0.183724E-08  0.296E-04    3.63      66.3  T
   8    -32.0746913 -0.249713E-09  0.594E-05    3.63     330.0  T
   9    -32.0746913 -0.222755E-10  0.277E-05    3.63     708.2  T
  10    -32.0746913 -0.337508E-11  0.133E-05    3.63    1476.7  T
  11    -32.0746913 -0.866862E-12  0.517E-06    3.63    3794.3  T
  12    -32.0746913 -0.710543E-13  0.124E-06    3.63   15817.2  T
     SCC iter.                  ...        0 min,  0.075 sec
     gradient                   ...        0 min,  0.002 sec
 * total energy  :   -31.5542371 Eh     change       -0.4024707E-03 Eh
   gradient norm :     0.0075971 Eh/α   predicted    -0.3286639E-03 ( -18.34%)
   displ. norm   :     0.6525924 α      lambda       -0.7561931E-03
   maximum displ.:     0.3292026 α      in ANC's #5, #2, #4, ...

........................................................................
.............................. CYCLE   16 ..............................
........................................................................

 iter      E             dE          RMSdq      gap      omega  full diag
   1    -32.0716563 -0.320717E+02  0.183E-01    3.65       0.0  T
   2    -32.0716608 -0.450934E-05  0.106E-01    3.65       1.0  T
   3    -32.0716595  0.125901E-05  0.178E-02    3.65       1.1  T
   4    -32.0716615 -0.201713E-05  0.342E-03    3.65       5.7  T
   5    -32.0716616 -0.103761E-06  0.212E-03    3.65       9.3  T
   6    -32.0716617 -0.383452E-07  0.571E-04    3.65      34.4  T
   7    -32.0716617 -0.280811E-08  0.192E-04    3.65     102.4  T
   8    -32.0716617 -0.218506E-09  0.834E-05    3.65     235.2  T
   9    -32.0716617 -0.658531E-10  0.248E-05    3.65     791.2  T
  10    -32.0716617 -0.135714E-11  0.106E-05    3.65    1848.2  T
  11    -32.0716617 -0.937916E-12  0.328E-06    3.65    5985.5  T
  12    -32.0716617 -0.923706E-13  0.108E-06    3.65   18113.9  T
     SCC iter.                  ...        0 min,  0.075 sec
     gradient                   ...        0 min,  0.002 sec
 * total energy  :   -31.5547289 Eh     change       -0.4918073E-03 Eh
   gradient norm :     0.0093283 Eh/α   predicted    -0.5391061E-03 (   9.62%)
   displ. norm   :     0.3817133 α      lambda       -0.4373766E-03
   maximum displ.:     0.1765156 α      in ANC's #2, #4, #5, ...

........................................................................
.............................. CYCLE   17 ..............................
........................................................................

 iter      E             dE          RMSdq      gap      omega  full diag
   1    -32.0707117 -0.320707E+02  0.108E-01    3.64       0.0  T
   2    -32.0707141 -0.240368E-05  0.630E-02    3.64       1.0  T
   3    -32.0707134  0.655306E-06  0.153E-02    3.64       1.3  T
   4    -32.0707146 -0.111639E-05  0.276E-03    3.64       7.1  T
   5    -32.0707146  0.265049E-08  0.154E-03    3.64      12.8  T
   6    -32.0707146 -0.147250E-07  0.743E-04    3.64      26.4  T
   7    -32.0707146 -0.169256E-08  0.172E-04    3.64     114.2  T
   8    -32.0707146 -0.239034E-09  0.463E-05    3.64     423.4  T
   9    -32.0707146 -0.109992E-10  0.225E-05    3.64     873.4  T
  10    -32.0707146 -0.300560E-11  0.956E-06    3.64    2050.6  T
  11    -32.0707146 -0.525802E-12  0.340E-06    3.64    5761.8  T
     SCC iter.                  ...        0 min,  0.075 sec
     gradient                   ...        0 min,  0.002 sec
 * total energy  :   -31.5549799 Eh     change       -0.2509670E-03 Eh
   gradient norm :     0.0098536 Eh/α   predicted    -0.2505506E-03 (  -0.17%)
   displ. norm   :     0.2321000 α      lambda       -0.4909440E-03
   maximum displ.:     0.1402373 α      in ANC's #2, #4, #47, ...

........................................................................
.............................. CYCLE   18 ..............................
........................................................................

 iter      E             dE          RMSdq      gap      omega  full diag
   1    -32.0770670 -0.320771E+02  0.916E-02    3.64       0.0  T
   2    -32.0770721 -0.508261E-05  0.472E-02    3.63       1.0  T
   3    -32.0770719  0.128174E-06  0.212E-02    3.63       1.0  T
   4    -32.0770726 -0.708021E-06  0.389E-03    3.63       5.0  T
   5    -32.0770726  0.175368E-08  0.271E-03    3.63       7.2  T
   6    -32.0770727 -0.974839E-07  0.913E-04    3.63      21.5  T
   7    -32.0770727 -0.354927E-08  0.304E-04    3.63      64.5  T
   8    -32.0770727 -0.860112E-10  0.101E-04    3.63     193.4  T
   9    -32.0770727 -0.111790E-09  0.452E-05    3.63     433.9  T
  10    -32.0770727 -0.616041E-11  0.156E-05    3.63    1254.9  T
  11    -32.0770727 -0.132871E-11  0.605E-06    3.63    3243.2  T
  12    -32.0770727 -0.710543E-14  0.119E-06    3.63   16466.9  T
     SCC iter.                  ...        0 min,  0.080 sec
     gradient                   ...        0 min,  0.002 sec
 * total energy  :   -31.5551466 Eh     change       -0.1666891E-03 Eh
   gradient norm :     0.0107285 Eh/α   predicted    -0.2586959E-03 (  55.20%)
   displ. norm   :     0.3636384 α      lambda       -0.3930181E-03
   maximum displ.:     0.1733948 α      in ANC's #4, #2, #5, ...

........................................................................
.............................. CYCLE   19 ..............................
........................................................................

 iter      E             dE          RMSdq      gap      omega  full diag
   1    -32.0743431 -0.320743E+02  0.106E-01    3.66       0.0  T
   2    -32.0743468 -0.375893E-05  0.635E-02    3.66       1.0  T
   3    -32.0743465  0.355207E-06  0.160E-02    3.66       1.2  T
   4    -32.0743473 -0.848459E-06  0.321E-03    3.66       6.1  T
   5    -32.0743473  0.106383E-08  0.190E-03    3.66      10.3  T
   6    -32.0743473 -0.102263E-07  0.561E-04    3.66      35.0  T
   7    -32.0743473 -0.176092E-08  0.217E-04    3.66      90.5  T
   8    -32.0743473 -0.305846E-09  0.634E-05    3.66     309.4  T
   9    -32.0743473 -0.181402E-10  0.311E-05    3.66     631.6  T
  10    -32.0743473 -0.157740E-11  0.149E-05    3.66    1315.4  T
  11    -32.0743473 -0.987654E-12  0.430E-06    3.66    4557.2  T
  12    -32.0743473 -0.135003E-12  0.903E-07    3.66   21728.4  T
     SCC iter.                  ...        0 min,  0.077 sec
     gradient                   ...        0 min,  0.005 sec
 * total energy  :   -31.5553723 Eh     change       -0.2257572E-03 Eh
   gradient norm :     0.0093719 Eh/α   predicted    -0.2224981E-03 (  -1.44%)
   displ. norm   :     0.1529973 α      lambda       -0.2585796E-03
   maximum displ.:     0.0881787 α      in ANC's #4, #2, #6, ...

........................................................................
.............................. CYCLE   20 ..............................
........................................................................

 iter      E             dE          RMSdq      gap      omega  full diag
   1    -32.0765453 -0.320765E+02  0.640E-02    3.67       0.0  T
   2    -32.0765477 -0.233082E-05  0.341E-02    3.67       1.0  T
   3    -32.0765475  0.136917E-06  0.149E-02    3.67       1.3  T
   4    -32.0765481 -0.539630E-06  0.228E-03    3.67       8.6  T
   5    -32.0765481 -0.253403E-08  0.127E-03    3.67      15.4  T
   6    -32.0765481 -0.190917E-07  0.606E-04    3.67      32.4  T
   7    -32.0765481 -0.149470E-08  0.241E-04    3.67      81.4  T
   8    -32.0765481 -0.155602E-09  0.662E-05    3.67     296.0  T
   9    -32.0765481 -0.604103E-10  0.326E-05    3.67     601.9  T
  10    -32.0765481 -0.756728E-11  0.685E-06    3.67    2861.8  T
  11    -32.0765481  0.213163E-13  0.292E-06    3.67    6707.0  T
     SCC iter.                  ...        0 min,  0.081 sec
     gradient                   ...        0 min,  0.002 sec
 * total energy  :   -31.5554503 Eh     change       -0.7799502E-04 Eh
   gradient norm :     0.0093459 Eh/α   predicted    -0.1323194E-03 (  69.65%)
   displ. norm   :     0.2209620 α      lambda       -0.2678311E-03
   maximum displ.:     0.1102973 α      in ANC's #4, #2, #5, ...
 * RMSD in coord.:     1.3088566 α      energy gain  -0.1654329E-01 Eh

generating ANC from model Hessian ...
Using Lindh-Hessian (1995)
 Shifting diagonal of input Hessian by   9.132784175157926E-003
 Lowest  eigenvalues of input Hessian
    0.000000    0.000000    0.000000    0.000000    0.000000    0.000000
    0.010000    0.010093    0.010739    0.010926    0.011209    0.012667
    0.014987    0.016905    0.018211    0.018581    0.021754    0.024192
 Highest eigenvalues
    1.362872    1.554917    1.573413    1.881382    1.987125    2.003254
 

........................................................................
.............................. CYCLE   21 ..............................
........................................................................

 iter      E             dE          RMSdq      gap      omega  full diag
   1    -32.0744285 -0.320744E+02  0.766E-02    3.66       0.0  T
   2    -32.0744304 -0.186575E-05  0.421E-02    3.66       1.0  T
   3    -32.0744301  0.320491E-06  0.120E-02    3.66       1.6  T
   4    -32.0744307 -0.627790E-06  0.175E-03    3.66      11.2  T
   5    -32.0744307 -0.721584E-08  0.116E-03    3.66      16.8  T
   6    -32.0744307 -0.123033E-07  0.442E-04    3.66      44.4  T
   7    -32.0744307 -0.596998E-10  0.153E-04    3.66     128.5  T
   8    -32.0744307 -0.223352E-09  0.555E-05    3.66     353.1  T
   9    -32.0744307 -0.207621E-10  0.239E-05    3.66     820.0  T
  10    -32.0744307 -0.241585E-11  0.106E-05    3.66    1852.3  T
  11    -32.0744307 -0.802913E-12  0.300E-06    3.66    6527.2  T
  12    -32.0744307 -0.284217E-13  0.138E-06    3.66   14255.9  T
     SCC iter.                  ...        0 min,  0.082 sec
     gradient                   ...        0 min,  0.005 sec
 * total energy  :   -31.5555827 Eh     change       -0.1323421E-03 Eh
   gradient norm :     0.0063630 Eh/α   predicted     0.0000000E+00 (-100.00%)
   displ. norm   :     0.0577943 α      lambda       -0.1379304E-03
   maximum displ.:     0.0355507 α      in ANC's #4, #9, #2, ...

........................................................................
.............................. CYCLE   22 ..............................
........................................................................

 iter      E             dE          RMSdq      gap      omega  full diag
   1    -32.0760439 -0.320760E+02  0.329E-02    3.66       0.0  T
   2    -32.0760444 -0.474768E-06  0.191E-02    3.66       1.0  T
   3    -32.0760443  0.688229E-07  0.613E-03    3.66       3.2  T
   4    -32.0760445 -0.137151E-06  0.153E-03    3.66      12.8  T
   5    -32.0760445  0.173163E-08  0.954E-04    3.66      20.6  T
   6    -32.0760445 -0.363026E-08  0.267E-04    3.66      73.6  T
   7    -32.0760445 -0.113809E-08  0.490E-05    3.66     400.4  T
   8    -32.0760445 -0.102318E-10  0.218E-05    3.66     900.6  T
   9    -32.0760445 -0.156319E-12  0.117E-05    3.66    1679.4  T
  10    -32.0760445 -0.966338E-12  0.518E-06    3.66    3789.5  T
  11    -32.0760445 -0.156319E-12  0.820E-07    3.66   23904.9  T
     SCC iter.                  ...        0 min,  0.080 sec
     gradient                   ...        0 min,  0.002 sec
 * total energy  :   -31.5556742 Eh     change       -0.9155032E-04 Eh
   gradient norm :     0.0020067 Eh/α   predicted    -0.6924313E-04 ( -24.37%)
   displ. norm   :     0.0870238 α      lambda       -0.6587296E-04
   maximum displ.:     0.0594339 α      in ANC's #4, #9, #2, ...

........................................................................
.............................. CYCLE   23 ..............................
........................................................................

 iter      E             dE          RMSdq      gap      omega  full diag
   1    -32.0768607 -0.320769E+02  0.266E-02    3.66       0.0  T
   2    -32.0768609 -0.117693E-06  0.155E-02    3.66       1.3  T
   3    -32.0768608  0.471598E-07  0.257E-03    3.66       7.6  T
   4    -32.0768609 -0.697565E-07  0.650E-04    3.66      30.2  T
   5    -32.0768609 -0.213985E-08  0.372E-04    3.66      52.8  T
   6    -32.0768609 -0.859238E-09  0.129E-04    3.66     152.3  T
   7    -32.0768609 -0.210072E-09  0.379E-05    3.66     517.0  T
   8    -32.0768609 -0.279954E-11  0.156E-05    3.66    1260.0  T
   9    -32.0768609 -0.568434E-12  0.565E-06    3.66    3468.9  T
  10    -32.0768609 -0.234479E-12  0.176E-06    3.66   11115.9  T
     SCC iter.                  ...        0 min,  0.080 sec
     gradient                   ...        0 min,  0.002 sec
 * total energy  :   -31.5557246 Eh     change       -0.5037455E-04 Eh
   gradient norm :     0.0014752 Eh/α   predicted    -0.3318626E-04 ( -34.12%)
   displ. norm   :     0.2119953 α      lambda       -0.7161556E-04
   maximum displ.:     0.1347199 α      in ANC's #4, #9, #2, ...

........................................................................
.............................. CYCLE   24 ..............................
........................................................................

 iter      E             dE          RMSdq      gap      omega  full diag
   1    -32.0767944 -0.320768E+02  0.568E-02    3.66       0.0  T
   2    -32.0767946 -0.166481E-06  0.337E-02    3.66       1.0  T
   3    -32.0767945  0.728593E-07  0.282E-03    3.66       7.0  T
   4    -32.0767946 -0.126274E-06  0.106E-03    3.66      18.5  T
   5    -32.0767946 -0.399649E-08  0.516E-04    3.66      38.0  T
   6    -32.0767946 -0.212433E-08  0.170E-04    3.66     115.3  T
   7    -32.0767946 -0.241563E-09  0.489E-05    3.66     401.3  T
   8    -32.0767946 -0.423412E-10  0.221E-05    3.66     885.9  T
   9    -32.0767946 -0.294165E-11  0.682E-06    3.66    2875.5  T
  10    -32.0767946 -0.113687E-12  0.268E-06    3.66    7326.5  T
     SCC iter.                  ...        0 min,  0.076 sec
     gradient                   ...        0 min,  0.002 sec
 * total energy  :   -31.5558073 Eh     change       -0.8266690E-04 Eh
   gradient norm :     0.0036887 Eh/α   predicted    -0.3652491E-04 ( -55.82%)
   displ. norm   :     0.1803830 α      lambda       -0.7723839E-04
   maximum displ.:     0.1097899 α      in ANC's #4, #5, #2, ...

........................................................................
.............................. CYCLE   25 ..............................
........................................................................

 iter      E             dE          RMSdq      gap      omega  full diag
   1    -32.0761562 -0.320762E+02  0.451E-02    3.65       0.0  T
   2    -32.0761564 -0.171076E-06  0.267E-02    3.65       1.0  T
   3    -32.0761563  0.887534E-07  0.413E-03    3.65       4.7  T
   4    -32.0761564 -0.136003E-06  0.126E-03    3.65      15.5  T
   5    -32.0761564  0.506991E-08  0.856E-04    3.65      22.9  T
   6    -32.0761565 -0.895670E-08  0.292E-04    3.65      67.2  T
   7    -32.0761565 -0.145462E-09  0.570E-05    3.65     343.9  T
   8    -32.0761565 -0.320455E-11  0.228E-05    3.65     858.7  T
   9    -32.0761565 -0.526512E-11  0.103E-05    3.65    1895.2  T
  10    -32.0761565 -0.881073E-12  0.197E-06    3.65    9951.3  T
  11    -32.0761565 -0.568434E-13  0.668E-07    3.65   29357.9  T
     SCC iter.                  ...        0 min,  0.078 sec
     gradient                   ...        0 min,  0.002 sec
 * total energy  :   -31.5558714 Eh     change       -0.6413716E-04 Eh
   gradient norm :     0.0034641 Eh/α   predicted    -0.3987602E-04 ( -37.83%)
   displ. norm   :     0.2448651 α      lambda       -0.8713178E-04
   maximum displ.:     0.1471754 α      in ANC's #4, #2, #5, ...

........................................................................
.............................. CYCLE   26 ..............................
........................................................................

 iter      E             dE          RMSdq      gap      omega  full diag
   1    -32.0751578 -0.320752E+02  0.617E-02    3.65       0.0  T
   2    -32.0751581 -0.391136E-06  0.365E-02    3.65       1.0  T
   3    -32.0751578  0.354908E-06  0.654E-03    3.65       3.0  T
   4    -32.0751582 -0.460488E-06  0.194E-03    3.65      10.1  T
   5    -32.0751582  0.462645E-08  0.128E-03    3.65      15.3  T
   6    -32.0751583 -0.211134E-07  0.458E-04    3.65      42.8  T
   7    -32.0751583 -0.363137E-09  0.810E-05    3.65     242.1  T
   8    -32.0751583 -0.513722E-11  0.279E-05    3.65     703.6  T
   9    -32.0751583 -0.595435E-11  0.141E-05    3.65    1391.5  T
  10    -32.0751583 -0.165556E-11  0.365E-06    3.65    5375.8  T
  11    -32.0751583 -0.426326E-13  0.106E-06    3.65   18489.4  T
     SCC iter.                  ...        0 min,  0.078 sec
     gradient                   ...        0 min,  0.002 sec
 * total energy  :   -31.5559284 Eh     change       -0.5704370E-04 Eh
   gradient norm :     0.0035885 Eh/α   predicted    -0.4618387E-04 ( -19.04%)
   displ. norm   :     0.1211517 α      lambda       -0.4369549E-04
   maximum displ.:     0.0709153 α      in ANC's #4, #2, #5, ...

........................................................................
.............................. CYCLE   27 ..............................
........................................................................

 iter      E             dE          RMSdq      gap      omega  full diag
   1    -32.0756190 -0.320756E+02  0.325E-02    3.65       0.0  T
   2    -32.0756192 -0.158484E-06  0.191E-02    3.65       1.0  T
   3    -32.0756190  0.207002E-06  0.330E-03    3.65       5.9  T
   4    -32.0756192 -0.240065E-06  0.101E-03    3.65      19.4  T
   5    -32.0756192 -0.110828E-07  0.370E-04    3.65      52.9  T
   6    -32.0756192 -0.359989E-09  0.183E-04    3.65     107.3  T
   7    -32.0756192 -0.378293E-10  0.419E-05    3.65     468.2  T
   8    -32.0756192 -0.139053E-10  0.113E-05    3.65    1731.3  T
   9    -32.0756192 -0.639488E-12  0.368E-06    3.65    5329.7  T
  10    -32.0756192 -0.127898E-12  0.142E-06    3.65   13838.4  T
     SCC iter.                  ...        0 min,  0.078 sec
     gradient                   ...        0 min,  0.002 sec
 * total energy  :   -31.5559611 Eh     change       -0.3262090E-04 Eh
   gradient norm :     0.0025079 Eh/α   predicted    -0.2217500E-04 ( -32.02%)
   displ. norm   :     0.1301565 α      lambda       -0.3881782E-04
   maximum displ.:     0.0716209 α      in ANC's #4, #2, #1, ...

........................................................................
.............................. CYCLE   28 ..............................
........................................................................

 iter      E             dE          RMSdq      gap      omega  full diag
   1    -32.0763936 -0.320764E+02  0.396E-02    3.65       0.0  T
   2    -32.0763938 -0.224576E-06  0.229E-02    3.65       1.0  T
   3    -32.0763936  0.233225E-06  0.353E-03    3.65       5.6  T
   4    -32.0763938 -0.263460E-06  0.138E-03    3.65      14.2  T
   5    -32.0763939 -0.266433E-07  0.366E-04    3.65      53.6  T
   6    -32.0763939 -0.143181E-09  0.142E-04    3.65     137.7  T
   7    -32.0763939 -0.777334E-11  0.624E-05    3.65     314.2  T
   8    -32.0763939 -0.151985E-10  0.130E-05    3.65    1504.0  T
   9    -32.0763939 -0.191847E-11  0.503E-06    3.65    3901.9  T
  10    -32.0763939 -0.397904E-12  0.240E-06    3.65    8157.2  T
     SCC iter.                  ...        0 min,  0.076 sec
     gradient                   ...        0 min,  0.002 sec
 * total energy  :   -31.5559881 Eh     change       -0.2699068E-04 Eh
   gradient norm :     0.0019960 Eh/α   predicted    -0.1974036E-04 ( -26.86%)
   displ. norm   :     0.2138014 α      lambda       -0.2206190E-04
   maximum displ.:     0.1170625 α      in ANC's #4, #2, #5, ...

........................................................................
.............................. CYCLE   29 ..............................
........................................................................

 iter      E             dE          RMSdq      gap      omega  full diag
   1    -32.0762189 -0.320762E+02  0.641E-02    3.65       0.0  T
   2    -32.0762191 -0.292223E-06  0.375E-02    3.65       1.0  T
   3    -32.0762188  0.373486E-06  0.476E-03    3.65       4.1  T
   4    -32.0762192 -0.424936E-06  0.187E-03    3.65      10.5  T
   5    -32.0762192 -0.488738E-07  0.553E-04    3.65      35.5  T
   6    -32.0762192 -0.127311E-08  0.275E-04    3.65      71.2  T
   7    -32.0762192 -0.340400E-09  0.694E-05    3.65     282.7  T
   8    -32.0762192 -0.550600E-10  0.228E-05    3.65     861.0  T
   9    -32.0762192 -0.605382E-11  0.867E-06    3.65    2262.3  T
  10    -32.0762192 -0.540012E-12  0.259E-06    3.65    7568.3  T
     SCC iter.                  ...        0 min,  0.077 sec
     gradient                   ...        0 min,  0.002 sec
 * total energy  :   -31.5560075 Eh     change       -0.1945110E-04 Eh
   gradient norm :     0.0021260 Eh/α   predicted    -0.1125890E-04 ( -42.12%)
   displ. norm   :     0.0615786 α      lambda       -0.1895713E-04
   maximum displ.:     0.0346457 α      in ANC's #1, #2, #9, ...

........................................................................
.............................. CYCLE   30 ..............................
........................................................................

 iter      E             dE          RMSdq      gap      omega  full diag
   1    -32.0772928 -0.320773E+02  0.244E-02    3.65       0.0  T
   2    -32.0772929 -0.140162E-06  0.135E-02    3.65       1.5  T
   3    -32.0772929  0.797173E-08  0.292E-03    3.65       6.7  T
   4    -32.0772929 -0.240531E-07  0.649E-04    3.65      30.2  T
   5    -32.0772929 -0.599229E-09  0.284E-04    3.65      69.1  T
   6    -32.0772929 -0.660933E-09  0.142E-04    3.65     138.2  T
   7    -32.0772929 -0.229818E-09  0.526E-05    3.65     373.1  T
   8    -32.0772929 -0.116316E-10  0.152E-05    3.65    1294.0  T
   9    -32.0772929 -0.116529E-11  0.981E-06    3.65    1999.9  T
  10    -32.0772929 -0.603961E-12  0.180E-06    3.65   10880.3  T
     SCC iter.                  ...        0 min,  0.076 sec
     gradient                   ...        0 min,  0.002 sec
 * total energy  :   -31.5560177 Eh     change       -0.1017065E-04 Eh
   gradient norm :     0.0018413 Eh/α   predicted    -0.9520723E-05 (  -6.39%)
   displ. norm   :     0.1382288 α      lambda       -0.1355454E-04
   maximum displ.:     0.0713173 α      in ANC's #2, #4, #1, ...

........................................................................
.............................. CYCLE   31 ..............................
........................................................................

 iter      E             dE          RMSdq      gap      omega  full diag
   1    -32.0768470 -0.320768E+02  0.464E-02    3.65       0.0  T
   2    -32.0768473 -0.222926E-06  0.270E-02    3.65       1.0  T
   3    -32.0768473  0.789161E-08  0.266E-03    3.65       7.4  T
   4    -32.0768473 -0.311643E-07  0.109E-03    3.65      18.0  T
   5    -32.0768473 -0.847302E-08  0.574E-04    3.65      34.2  T
   6    -32.0768473 -0.540800E-08  0.230E-04    3.65      85.3  T
   7    -32.0768473 -0.853930E-10  0.392E-05    3.65     500.4  T
   8    -32.0768473 -0.129248E-10  0.185E-05    3.65    1057.9  T
   9    -32.0768473  0.106581E-12  0.648E-06    3.65    3027.0  T
  10    -32.0768473 -0.682121E-12  0.192E-06    3.65   10207.6  T
     SCC iter.                  ...        0 min,  0.076 sec
     gradient                   ...        0 min,  0.002 sec
 * total energy  :   -31.5560302 Eh     change       -0.1251858E-04 Eh
   gradient norm :     0.0008408 Eh/α   predicted    -0.6835430E-05 ( -45.40%)
   displ. norm   :     0.0565079 α      lambda       -0.4610297E-05
   maximum displ.:     0.0318204 α      in ANC's #1, #2, #4, ...

........................................................................
.............................. CYCLE   32 ..............................
........................................................................

 iter      E             dE          RMSdq      gap      omega  full diag
   1    -32.0770355 -0.320770E+02  0.214E-02    3.65       0.0  T
   2    -32.0770355 -0.580155E-07  0.123E-02    3.65       1.6  T
   3    -32.0770355 -0.204353E-08  0.127E-03    3.65      15.4  T
   4    -32.0770355 -0.139926E-08  0.598E-04    3.65      32.8  T
   5    -32.0770355 -0.740870E-08  0.166E-04    3.65     118.3  T
   6    -32.0770355 -0.114966E-09  0.914E-05    3.65     214.5  T
   7    -32.0770355 -0.317968E-10  0.234E-05    3.65     839.9  T
   8    -32.0770355 -0.276401E-11  0.751E-06    3.65    2612.0  T
   9    -32.0770355 -0.923706E-12  0.296E-06    3.65    6624.6  T
     SCC iter.                  ...        0 min,  0.076 sec
     gradient                   ...        0 min,  0.002 sec
 * total energy  :   -31.5560347 Eh     change       -0.4533810E-05 Eh
   gradient norm :     0.0008438 Eh/α   predicted    -0.2308991E-05 ( -49.07%)
   displ. norm   :     0.0561820 α      lambda       -0.4438099E-05
   maximum displ.:     0.0299332 α      in ANC's #1, #2, #6, ...

........................................................................
.............................. CYCLE   33 ..............................
........................................................................

 iter      E             dE          RMSdq      gap      omega  full diag
   1    -32.0770528 -0.320771E+02  0.194E-02    3.65       0.0  T
   2    -32.0770528 -0.541011E-07  0.111E-02    3.65       1.8  T
   3    -32.0770528  0.688350E-08  0.142E-03    3.65      13.9  T
   4    -32.0770528 -0.100618E-07  0.578E-04    3.65      33.9  T
   5    -32.0770528 -0.602454E-08  0.218E-04    3.65      90.1  T
   6    -32.0770528 -0.675151E-09  0.718E-05    3.65     273.0  T
   7    -32.0770528 -0.196820E-11  0.258E-05    3.65     758.9  T
   8    -32.0770528 -0.587619E-11  0.104E-05    3.65    1884.9  T
   9    -32.0770528 -0.802913E-12  0.358E-06    3.65    5479.3  T
  10    -32.0770528 -0.177636E-12  0.139E-06    3.65   14119.9  T
     SCC iter.                  ...        0 min,  0.079 sec
     gradient                   ...        0 min,  0.002 sec
 * total energy  :   -31.5560391 Eh     change       -0.4357305E-05 Eh
   gradient norm :     0.0006729 Eh/α   predicted    -0.2222592E-05 ( -48.99%)
   displ. norm   :     0.0471842 α      lambda       -0.3250161E-05
   maximum displ.:     0.0232814 α      in ANC's #1, #10, #5, ...

........................................................................
.............................. CYCLE   34 ..............................
........................................................................

 iter      E             dE          RMSdq      gap      omega  full diag
   1    -32.0769271 -0.320769E+02  0.134E-02    3.65       0.0  T
   2    -32.0769271 -0.168405E-07  0.782E-03    3.65       2.5  T
   3    -32.0769270  0.183827E-07  0.123E-03    3.65      16.0  T
   4    -32.0769271 -0.218919E-07  0.364E-04    3.65      53.9  T
   5    -32.0769271 -0.178077E-08  0.155E-04    3.65     126.7  T
   6    -32.0769271 -0.212424E-09  0.523E-05    3.65     375.2  T
   7    -32.0769271 -0.181188E-11  0.165E-05    3.65    1190.3  T
   8    -32.0769271 -0.213163E-11  0.606E-06    3.65    3236.9  T
   9    -32.0769271 -0.554223E-12  0.208E-06    3.65    9444.2  T
     SCC iter.                  ...        0 min,  0.075 sec
     gradient                   ...        0 min,  0.002 sec
 * total energy  :   -31.5560423 Eh     change       -0.3228925E-05 Eh
   gradient norm :     0.0004907 Eh/α   predicted    -0.1628507E-05 ( -49.57%)
   displ. norm   :     0.0322491 α      lambda       -0.1616692E-05
   maximum displ.:     0.0182075 α      in ANC's #5, #1, #10, ...

........................................................................
.............................. CYCLE   35 ..............................
........................................................................

 iter      E             dE          RMSdq      gap      omega  full diag
   1    -32.0768824 -0.320769E+02  0.865E-03    3.65       0.0  T
   2    -32.0768824 -0.969113E-08  0.505E-03    3.65       3.9  T
   3    -32.0768824  0.384664E-08  0.685E-04    3.65      28.6  T
   4    -32.0768824 -0.371926E-08  0.365E-04    3.65      53.7  T
   5    -32.0768824 -0.221662E-08  0.834E-05    3.65     235.1  T
   6    -32.0768824 -0.142464E-10  0.478E-05    3.65     410.4  T
   7    -32.0768824 -0.639488E-11  0.137E-05    3.65    1436.5  T
   8    -32.0768824 -0.253664E-11  0.432E-06    3.65    4544.0  T
   9    -32.0768824 -0.241585E-12  0.172E-06    3.65   11387.4  T
     SCC iter.                  ...        0 min,  0.074 sec
     gradient                   ...        0 min,  0.002 sec
 * total energy  :   -31.5560439 Eh     change       -0.1553015E-05 Eh
   gradient norm :     0.0003395 Eh/α   predicted    -0.8137179E-06 ( -47.60%)
   displ. norm   :     0.0163236 α      lambda       -0.6656849E-06
   maximum displ.:     0.0095852 α      in ANC's #1, #3, #5, ...

........................................................................
.............................. CYCLE   36 ..............................
........................................................................

 iter      E             dE          RMSdq      gap      omega  full diag
   1    -32.0767966 -0.320768E+02  0.512E-03    3.65       0.0  T
   2    -32.0767966 -0.483919E-08  0.285E-03    3.65       6.9  T
   3    -32.0767966  0.175534E-08  0.788E-04    3.65      24.9  T
   4    -32.0767966 -0.272578E-08  0.132E-04    3.65     149.0  T
   5    -32.0767966 -0.437268E-10  0.804E-05    3.65     243.8  T
   6    -32.0767966 -0.662226E-10  0.301E-05    3.65     650.8  T
   7    -32.0767966 -0.251532E-11  0.754E-06    3.65    2602.4  T
   8    -32.0767966 -0.412115E-12  0.283E-06    3.65    6926.2  T
     SCC iter.                  ...        0 min,  0.073 sec
     gradient                   ...        0 min,  0.002 sec
 * total energy  :   -31.5560445 Eh     change       -0.6566876E-06 Eh
   gradient norm :     0.0001825 Eh/α   predicted    -0.3343772E-06 ( -49.08%)
   displ. norm   :     0.0172830 α      lambda        0.1729616E-06
   maximum displ.:     0.0102175 α      in ANC's #1, #3, #5, ...

........................................................................
.............................. CYCLE   37 ..............................
........................................................................

 iter      E             dE          RMSdq      gap      omega  full diag
   1    -32.0767044 -0.320767E+02  0.537E-03    3.65       0.0  T
   2    -32.0767044 -0.502297E-08  0.301E-03    3.65       6.5  T
   3    -32.0767044  0.190201E-08  0.798E-04    3.65      24.6  T
   4    -32.0767044 -0.292423E-08  0.134E-04    3.65     146.5  T
   5    -32.0767044 -0.492548E-10  0.812E-05    3.65     241.6  T
   6    -32.0767044 -0.702087E-10  0.303E-05    3.65     647.2  T
   7    -32.0767044 -0.255795E-11  0.771E-06    3.65    2543.3  T
   8    -32.0767044 -0.440536E-12  0.292E-06    3.65    6713.9  T
     SCC iter.                  ...        0 min,  0.072 sec
     gradient                   ...        0 min,  0.002 sec
 * total energy  :   -31.5560445 Eh     change        0.1850131E-07 Eh
   gradient norm :     0.0004890 Eh/α   predicted     0.8571968E-07 ( 363.32%)
   displ. norm   :     0.0065189 α      lambda       -0.5304409E-06
   maximum displ.:     0.0030077 α      in ANC's #10, #2, #5, ...

........................................................................
.............................. CYCLE   38 ..............................
........................................................................

 iter      E             dE          RMSdq      gap      omega  full diag
   1    -32.0767566 -0.320768E+02  0.290E-03    3.65       0.0  T
   2    -32.0767566 -0.223987E-08  0.160E-03    3.65      12.3  T
   3    -32.0767566  0.108489E-08  0.615E-04    3.65      31.9  T
   4    -32.0767566 -0.161776E-08  0.121E-04    3.65     162.3  T
   5    -32.0767566 -0.822808E-11  0.775E-05    3.65     253.0  T
   6    -32.0767566 -0.416165E-10  0.274E-05    3.65     715.6  T
   7    -32.0767566 -0.120082E-11  0.622E-06    3.65    3153.0  T
   8    -32.0767566 -0.163425E-12  0.161E-06    3.65   12161.1  T
     SCC iter.                  ...        0 min,  0.073 sec
     gradient                   ...        0 min,  0.002 sec
 * total energy  :   -31.5560451 Eh     change       -0.5995486E-06 Eh
   gradient norm :     0.0002542 Eh/α   predicted    -0.2700974E-06 ( -54.95%)
   displ. norm   :     0.0134336 α      lambda       -0.6070696E-06
   maximum displ.:     0.0069873 α      in ANC's #3, #10, #1, ...

........................................................................
.............................. CYCLE   39 ..............................
........................................................................

 iter      E             dE          RMSdq      gap      omega  full diag
   1    -32.0768341 -0.320768E+02  0.417E-03    3.65       0.0  T
   2    -32.0768341 -0.396584E-08  0.235E-03    3.65       8.4  T
   3    -32.0768341  0.192889E-08  0.606E-04    3.65      32.3  T
   4    -32.0768341 -0.247135E-08  0.140E-04    3.65     140.2  T
   5    -32.0768341 -0.252882E-09  0.629E-05    3.65     311.9  T
   6    -32.0768341 -0.635509E-10  0.263E-05    3.65     745.0  T
   7    -32.0768341 -0.111555E-11  0.821E-06    3.65    2387.5  T
   8    -32.0768341 -0.710543E-12  0.274E-06    3.65    7165.8  T
     SCC iter.                  ...        0 min,  0.073 sec
     gradient                   ...        0 min,  0.002 sec
 * total energy  :   -31.5560457 Eh     change       -0.6309790E-06 Eh
   gradient norm :     0.0001760 Eh/α   predicted    -0.3076109E-06 ( -51.25%)
   displ. norm   :     0.0163892 α      lambda       -0.4213867E-06
   maximum displ.:     0.0108222 α      in ANC's #3, #1, #10, ...

........................................................................
.............................. CYCLE   40 ..............................
........................................................................

 iter      E             dE          RMSdq      gap      omega  full diag
   1    -32.0768702 -0.320769E+02  0.510E-03    3.65       0.0  T
   2    -32.0768702 -0.158375E-08  0.298E-03    3.65       6.6  T
   3    -32.0768702  0.120032E-09  0.243E-04    3.65      80.6  T
   4    -32.0768702 -0.485535E-09  0.907E-05    3.65     216.1  T
   5    -32.0768702 -0.605951E-10  0.356E-05    3.65     550.3  T
   6    -32.0768702 -0.691358E-11  0.210E-05    3.65     933.6  T
   7    -32.0768702 -0.287770E-11  0.437E-06    3.65    4485.8  T
   8    -32.0768702 -0.994760E-13  0.142E-06    3.65   13817.6  T
     SCC iter.                  ...        0 min,  0.074 sec
     gradient                   ...        0 min,  0.002 sec
 * total energy  :   -31.5560462 Eh     change       -0.4830384E-06 Eh
   gradient norm :     0.0001798 Eh/α   predicted    -0.2121786E-06 ( -56.07%)
   displ. norm   :     0.0196710 α      lambda       -0.4051426E-06
   maximum displ.:     0.0133782 α      in ANC's #3, #1, #4, ...

........................................................................
.............................. CYCLE   41 ..............................
........................................................................

 iter      E             dE          RMSdq      gap      omega  full diag
   1    -32.0768916 -0.320769E+02  0.590E-03    3.65       0.0  T
   2    -32.0768916 -0.190168E-08  0.345E-03    3.65       5.7  T
   3    -32.0768916 -0.128964E-09  0.205E-04    3.65      95.6  T
   4    -32.0768916 -0.205148E-09  0.883E-05    3.65     222.0  T
   5    -32.0768916 -0.143174E-09  0.318E-05    3.65     615.9  T
   6    -32.0768916 -0.558487E-11  0.169E-05    3.65    1161.6  T
   7    -32.0768916 -0.127898E-11  0.285E-06    3.65    6885.2  T
   8    -32.0768916 -0.142109E-13  0.127E-06    3.65   15439.5  T
     SCC iter.                  ...        0 min,  0.075 sec
     gradient                   ...        0 min,  0.002 sec
 * total energy  :   -31.5560467 Eh     change       -0.5058045E-06 Eh
   gradient norm :     0.0001395 Eh/α   predicted    -0.2064998E-06 ( -59.17%)
   displ. norm   :     0.0225359 α      lambda       -0.3629302E-06
   maximum displ.:     0.0151296 α      in ANC's #1, #3, #4, ...

........................................................................
.............................. CYCLE   42 ..............................
........................................................................

 iter      E             dE          RMSdq      gap      omega  full diag
   1    -32.0768588 -0.320769E+02  0.695E-03    3.65       0.0  T
   2    -32.0768588 -0.157080E-08  0.409E-03    3.65       4.8  T
   3    -32.0768588 -0.236696E-09  0.217E-04    3.65      90.3  T
   4    -32.0768588 -0.329322E-09  0.799E-05    3.65     245.6  T
   5    -32.0768588 -0.687095E-11  0.465E-05    3.65     422.0  T
   6    -32.0768588 -0.193836E-10  0.150E-05    3.65    1311.5  T
   7    -32.0768588 -0.103029E-11  0.403E-06    3.65    4864.9  T
   8    -32.0768588 -0.227374E-12  0.169E-06    3.65   11615.6  T
     SCC iter.                  ...        0 min,  0.074 sec
     gradient                   ...        0 min,  0.002 sec
 * total energy  :   -31.5560472 Eh     change       -0.4310036E-06 Eh
   gradient norm :     0.0000704 Eh/α   predicted    -0.1847155E-06 ( -57.14%)
   displ. norm   :     0.0154606 α      lambda       -0.1702013E-06
   maximum displ.:     0.0108978 α      in ANC's #1, #3, #4, ...
 * RMSD in coord.:     0.2863815 α      energy gain  -0.5968283E-03 Eh

generating ANC from model Hessian ...
Using Lindh-Hessian (1995)
 Shifting diagonal of input Hessian by   9.137420820102247E-003
 Lowest  eigenvalues of input Hessian
    0.000000    0.000000    0.000000    0.000000    0.000000    0.000000
    0.010000    0.010089    0.010734    0.010906    0.011411    0.012668
    0.015029    0.016958    0.018412    0.018630    0.022193    0.024169
 Highest eigenvalues
    1.363453    1.554193    1.573407    1.882254    1.988296    2.004458
 

........................................................................
.............................. CYCLE   43 ..............................
........................................................................

 iter      E             dE          RMSdq      gap      omega  full diag
   1    -32.0768447 -0.320768E+02  0.509E-03    3.65       0.0  T
   2    -32.0768447 -0.135669E-08  0.298E-03    3.65       6.6  T
   3    -32.0768447 -0.135138E-09  0.166E-04    3.65     118.3  T
   4    -32.0768447 -0.104706E-09  0.838E-05    3.65     234.0  T
   5    -32.0768447 -0.104563E-09  0.280E-05    3.65     701.5  T
   6    -32.0768447 -0.264322E-11  0.126E-05    3.65    1557.3  T
   7    -32.0768447 -0.468958E-12  0.394E-06    3.65    4971.5  T
   8    -32.0768447 -0.198952E-12  0.129E-06    3.65   15180.6  T
     SCC iter.                  ...        0 min,  0.073 sec
     gradient                   ...        0 min,  0.002 sec
 * total energy  :   -31.5560473 Eh     change       -0.1951191E-06 Eh
   gradient norm :     0.0000661 Eh/α   predicted     0.0000000E+00 (-100.00%)
   displ. norm   :     0.0000992 α      lambda        0.0000000E+00
   maximum displ.:     0.0000355 α      in ANC's #22, #66, #55, ...

........................................................................
.............................. CYCLE   44 ..............................
........................................................................

 iter      E             dE          RMSdq      gap      omega  full diag
   1    -32.0768390 -0.320768E+02  0.143E-04    3.65       0.0  T
   2    -32.0768390 -0.475495E-10  0.828E-05    3.65     236.8  T
   3    -32.0768390 -0.189715E-11  0.394E-05    3.65     498.3  T
   4    -32.0768390 -0.292744E-11  0.144E-05    3.65    1365.4  T
   5    -32.0768390 -0.123634E-11  0.496E-06    3.65    3950.7  T
   6    -32.0768390 -0.490274E-12  0.164E-06    3.65   11960.5  T
     SCC iter.                  ...        0 min,  0.075 sec
     gradient                   ...        0 min,  0.002 sec
 * total energy  :   -31.5560474 Eh     change       -0.4383384E-08 Eh
   gradient norm :     0.0000410 Eh/α   predicted    -0.3043890E-08 ( -30.56%)
   displ. norm   :     0.0000992 α      lambda        0.0000000E+00
   maximum displ.:     0.0000355 α      in ANC's #22, #66, #55, ...

   *** GEOMETRY OPTIMIZATION CONVERGED AFTER 44 ITERATIONS ***

------------------------------------------------------------------------
 total energy gain   :        -0.0171403 Eh      -10.7557 kcal/mol
 total RMSD          :         1.3909931 a0        0.7361 Å
 total power (kW/mol):        -1.0227704 (step)  -12.8768 (real)
------------------------------------------------------------------------

 ANCopt (total)                0 d,  0 h,  0 min,  3.495 sec
 optimizer setup                ...        0 min,  0.000 sec (  0.002%)
 model hessian                  ...        0 min,  0.019 sec (  0.543%)
 ANC generation                 ...        0 min,  0.002 sec (  0.045%)
 coordinate transformation      ...        0 min,  0.000 sec (  0.012%)
 single point calculation       ...        0 min,  3.466 sec ( 99.175%)
 optimization log               ...        0 min,  0.003 sec (  0.081%)
 hessian update                 ...        0 min,  0.001 sec (  0.019%)
 rational function              ...        0 min,  0.003 sec (  0.081%)

================
 final structure:
================
26
 xtb: 6.7.0 (08769fc)
P            1.76837636820026       -0.23119635697037       -2.83220542483346
C            1.76771977951707        1.41231285145312       -3.72114802953416
H            1.10567919778770        2.12258189085898       -3.21952677005430
H            2.78919986064307        1.79987646730703       -3.67069624592349
C            1.35072382327965        1.24414674143750       -5.17682027934457
H            0.33076399487909        0.87138708123101       -5.24669279265115
H            2.00602115130246        0.53590146578645       -5.67962964178411
H            1.40340072638666        2.19624818346877       -5.70250749790117
C            2.46139826717173        0.29865525401226       -1.21048212779732
C            2.09916498910202        1.46466728580098       -0.54594607448368
C            3.39524965876973       -0.54795018703941       -0.62307742435581
C            2.66142197232483        1.77362571610260        0.67901601600841
C            3.95555467292816       -0.24139387844972        0.60395138942944
C            3.58891599281180        0.92253815194304        1.25731116450570
H            1.37508100773305        2.13981716755779       -0.97898570427344
H            3.67727051573515       -1.45443818629281       -1.14090149329941
H            2.37361958084162        2.68322616179853        1.18720306662344
H            4.67824840279276       -0.90902100651175        1.05060537557352
H            4.02399414599226        1.16784673071052        2.21522460942856
C           -0.03333775725664       -0.28744906295111       -2.34374499010193
H           -0.32436480293645        0.66088312775756       -1.88302996627826
H           -0.61399165678263       -0.41718799570207       -3.26112483968544
C           -0.30119249690872       -1.44586410153208       -1.39333985661541
H            0.26814236963286       -1.32236698921237       -0.47322682481798
H           -0.00724674204362       -2.38863599158928       -1.85061727447205
H           -1.35892702190378       -1.49954152097299       -1.14050836336235
 
 Bond Distances (Angstroems)
 ---------------------------
P1-C2=1.8685         P1-C9=1.8415         P1-C20=1.8676        C2-P1=1.8685         C2-H3=1.0929         C2-H4=1.0937         
C2-C5=1.5235         H3-C2=1.0929         H4-C2=1.0937         C5-C2=1.5235         C5-H6=1.0882         C5-H7=1.0880         
C5-H8=1.0889         H6-C5=1.0882         H7-C5=1.0880         H8-C5=1.0889         C9-P1=1.8415         C9-C10=1.3901        
C9-C11=1.3906        C10-C9=1.3901        C10-C12=1.3828       C10-H15=1.0806       C11-C9=1.3906        C11-C13=1.3833       
C11-H16=1.0814       C12-C10=1.3828       C12-C14=1.3853       C12-H17=1.0810       C13-C11=1.3833       C13-C14=1.3842       
C13-H18=1.0805       C14-C12=1.3853       C14-C13=1.3842       C14-H19=1.0803       H15-C10=1.0806       H16-C11=1.0814       
H17-C12=1.0810       H18-C13=1.0805       H19-C14=1.0803       C20-P1=1.8676        C20-H21=1.0938       C20-H22=1.0934       
[...]
          |                Numerical Hessian                |
           ------------------------------------------------- 
step length          :   0.00500
SCC accuracy         :   0.30000
Hessian scale factor :   1.00000
frozen atoms in %    :   0.00000    0
RMS gradient         :   0.00004
estimated CPU  time      1.12 min
estimated wall time      0.14 min

writing file <hessian>.

 projected vibrational frequencies (cm⁻¹)
eigval :       -0.00    -0.00    -0.00    -0.00     0.00     0.00
eigval :      -11.90    47.85    69.78    96.48   134.88   158.80
eigval :      199.71   214.08   228.16   266.85   298.62   331.61
eigval :      362.55   428.99   450.08   586.03   656.15   661.67
eigval :      687.27   699.22   736.97   758.52   777.11   873.98
eigval :      898.38   926.29   932.68   968.98   976.29   994.29
eigval :     1012.78  1017.93  1071.51  1076.78  1083.27  1117.17
eigval :     1121.10  1181.62  1197.94  1223.31  1228.47  1250.89
eigval :     1253.38  1279.67  1315.37  1409.95  1410.50  1423.38
eigval :     1439.66  1447.23  1457.19  1497.22  1498.77  1501.19
eigval :     1502.31  1579.78  1589.55  2929.37  2937.94  2948.59
eigval :     2951.13  3013.63  3014.45  3019.34  3025.67  3029.88
eigval :     3033.38  3063.47  3064.73  3072.89  3077.94  3087.95
           -------------------------------------------------
          |                Property Printout                |
           -------------------------------------------------

    * Orbital Energies and Occupations

         #    Occupation            Energy/Eh            Energy/eV
      -------------------------------------------------------------
         1        2.0000           -0.6578946             -17.9022
       ...           ...                  ...                  ...
        18        2.0000           -0.4774683             -12.9926
        19        2.0000           -0.4746436             -12.9157
        20        2.0000           -0.4628147             -12.5938
        21        2.0000           -0.4620326             -12.5725
        22        2.0000           -0.4530390             -12.3278
        23        2.0000           -0.4444937             -12.0953
        24        2.0000           -0.4376874             -11.9101
        25        2.0000           -0.4232802             -11.5180
        26        2.0000           -0.4184577             -11.3868
        27        2.0000           -0.4044847             -11.0066
        28        2.0000           -0.4042206             -10.9994
        29        2.0000           -0.3968339             -10.7984
        30        2.0000           -0.3672746              -9.9941 (HOMO)
        31                         -0.2331791              -6.3451 (LUMO)
        32                         -0.2229563              -6.0669
        33                         -0.1562900              -4.2529
        34                         -0.1504379              -4.0936
        35                         -0.0928792              -2.5274
        36                         -0.0001455              -0.0040
        37                          0.0573847               1.5615
        38                          0.0897580               2.4424
        39                          0.1038743               2.8266
        40                          0.1350207               3.6741
        41                          0.1362550               3.7077
       ...                                ...                  ...
        64                          0.7819550              21.2781
      -------------------------------------------------------------
                  HL-Gap            0.1340955 Eh            3.6489 eV
             Fermi-level           -0.3002268 Eh           -8.1696 eV

     #   Z          covCN         q      C6AA      α(0)
     1  15 P        3.054    -0.115   165.433    23.106
     2   6 C        3.748    -0.047    21.485     6.611
     3   1 H        0.925     0.042     2.426     2.436
     4   1 H        0.926     0.039     2.460     2.453
     5   6 C        3.819    -0.098    22.350     6.728
     6   1 H        0.925     0.036     2.498     2.472
     7   1 H        0.925     0.042     2.421     2.433
     8   1 H        0.925     0.033     2.545     2.495
     9   6 C        2.916     0.008    27.848     8.654
    10   6 C        2.960    -0.029    28.712     8.789
    11   6 C        3.017    -0.030    28.732     8.793
    12   6 C        2.919    -0.031    28.771     8.796
    13   6 C        2.918    -0.030    28.745     8.792
    14   6 C        2.920    -0.029    28.731     8.790
    15   1 H        0.926     0.031     2.569     2.507
    16   1 H        0.925     0.040     2.453     2.449
    17   1 H        0.926     0.028     2.610     2.526
    18   1 H        0.926     0.030     2.582     2.513
    19   1 H        0.926     0.029     2.596     2.520
    20   6 C        3.748    -0.045    21.449     6.606
    21   1 H        0.925     0.042     2.416     2.431
    22   1 H        0.925     0.039     2.458     2.452
    23   6 C        3.821    -0.097    22.323     6.724
    24   1 H        0.925     0.035     2.510     2.478
    25   1 H        0.925     0.042     2.427     2.436
    26   1 H        0.925     0.032     2.553     2.499

 Mol. C6AA /au·bohr⁶  :       7598.475902
 Mol. C8AA /au·bohr⁸  :     202564.628618
 Mol. α(0) /au        :        139.485185


Wiberg/Mayer (AO) data.
largest (>0.10) Wiberg bond orders for each atom

 ---------------------------------------------------------------------------
     #   Z sym  total        # sym  WBO       # sym  WBO       # sym  WBO
 ---------------------------------------------------------------------------
     1  15 P    3.343 --     2 C    1.025    20 C    1.023     9 C    1.006
     2   6 C    3.994 --     1 P    1.025     5 C    1.016     4 H    0.960
                             3 H    0.951
     3   1 H    0.998 --     2 C    0.951
     4   1 H    0.998 --     2 C    0.960
     5   6 C    3.995 --     2 C    1.016     7 H    0.985     6 H    0.985
                             8 H    0.984
     6   1 H    0.999 --     5 C    0.985
     7   1 H    0.998 --     5 C    0.985
     8   1 H    0.998 --     5 C    0.984
     9   6 C    3.983 --    11 C    1.408    10 C    1.400     1 P    1.006
                            14 C    0.108
    10   6 C    3.993 --    12 C    1.449     9 C    1.400    15 H    0.962
                            13 C    0.111
    11   6 C    3.991 --    13 C    1.443     9 C    1.408    16 H    0.964
                            12 C    0.108
    12   6 C    3.993 --    10 C    1.449    14 C    1.433    17 H    0.970
                            11 C    0.108
    13   6 C    3.992 --    11 C    1.443    14 C    1.440    18 H    0.970
                            10 C    0.111
    14   6 C    3.990 --    13 C    1.440    12 C    1.433    19 H    0.971
                             9 C    0.108
    15   1 H    0.999 --    10 C    0.962
    16   1 H    0.998 --    11 C    0.964
    17   1 H    0.999 --    12 C    0.970
    18   1 H    0.999 --    13 C    0.970
    19   1 H    0.998 --    14 C    0.971
    20   6 C    3.996 --     1 P    1.023    23 C    1.017    22 H    0.958
                            21 H    0.951
    21   1 H    0.998 --    20 C    0.951
    22   1 H    0.998 --    20 C    0.958
    23   6 C    3.997 --    20 C    1.017    25 H    0.985    26 H    0.984
                            24 H    0.984
    24   1 H    0.999 --    23 C    0.984
    25   1 H    0.998 --    23 C    0.985
    26   1 H    0.999 --    23 C    0.984
 ---------------------------------------------------------------------------

Topologies differ in total number of bonds
Writing topology from bond orders to xtbtopo.mol

molecular dipole:
                 x           y           z       tot (Debye)
 q only:       -0.180       0.165       0.031
   full:       -0.334       0.492       0.230       1.619
molecular quadrupole (traceless):
                xx          xy          yy          xz          yz          zz
 q only:       -1.290       0.309       0.691       2.225      -1.767       0.599
  q+dip:       -1.839      -0.339       2.658       6.396      -2.520      -0.818
   full:       -1.120       1.695       1.796       5.381      -4.113      -0.676

           -------------------------------------------------
          |                Geometry Summary                 |
           -------------------------------------------------

      molecular mass/u    :      166.2002322
   center of mass at/Å    :        1.9749934       0.3263610      -1.6099954
  moments of inertia/u·Å² :        0.3318956E+03   0.8220407E+03   0.9386369E+03
rotational constants/cm⁻¹ :        0.5079198E-01   0.2050705E-01   0.1795969E-01

 * 23 selected distances

     #   Z          #   Z                                           value/Å
     2   6 C        3   1 H                                       1.0928879
     2   6 C        4   1 H                                       1.0936968
     2   6 C        5   6 C                                       1.5235313 (max)
     5   6 C        6   1 H                                       1.0881867
     5   6 C        7   1 H                                       1.0880457
     5   6 C        8   1 H                                       1.0888615
     9   6 C       10   6 C                                       1.3901099
     9   6 C       11   6 C                                       1.3906343
    10   6 C       12   6 C                                       1.3827945
    11   6 C       13   6 C                                       1.3832999
    12   6 C       14   6 C                                       1.3852873
    13   6 C       14   6 C                                       1.3842113
    10   6 C       15   1 H                                       1.0805779
    11   6 C       16   1 H                                       1.0813872
    12   6 C       17   1 H                                       1.0809521
    13   6 C       18   1 H                                       1.0805148
    14   6 C       19   1 H                                       1.0803091 (min)
    20   6 C       21   1 H                                       1.0937501
    20   6 C       22   1 H                                       1.0934245
    20   6 C       23   6 C                                       1.5221504
    23   6 C       24   1 H                                       1.0890372
    23   6 C       25   1 H                                       1.0882673
    23   6 C       26   1 H                                       1.0888561

 * 2 distinct bonds (by element types)

   Z      Z             #   av. dist./Å        max./Å        min./Å
   1 H    6 C          15     1.0872503     1.0937501     1.0803091
   6 C    6 C           8     1.4202524     1.5235313     1.3827945

           -------------------------------------------------
          |               Frequency Printout                |
           -------------------------------------------------
 projected vibrational frequencies (cm⁻¹)
eigval :       -0.00    -0.00    -0.00    -0.00     0.00     0.00
eigval :      -11.90    47.85    69.78    96.48   134.88   158.80
eigval :      199.71   214.08   228.16   266.85   298.62   331.61
eigval :      362.55   428.99   450.08   586.03   656.15   661.67
eigval :      687.27   699.22   736.97   758.52   777.11   873.98
eigval :      898.38   926.29   932.68   968.98   976.29   994.29
eigval :     1012.78  1017.93  1071.51  1076.78  1083.27  1117.17
eigval :     1121.10  1181.62  1197.94  1223.31  1228.47  1250.89
eigval :     1253.38  1279.67  1315.37  1409.95  1410.50  1423.38
eigval :     1439.66  1447.23  1457.19  1497.22  1498.77  1501.19
eigval :     1502.31  1579.78  1589.55  2929.37  2937.94  2948.59
eigval :     2951.13  3013.63  3014.45  3019.34  3025.67  3029.88
eigval :     3033.38  3063.47  3064.73  3072.89  3077.94  3087.95
 reduced masses (amu)
   1: 11.42   2: 11.12   3: 13.12   4: 13.72   5: 14.53   6: 12.75   7:  9.43   8: 10.21
   9:  8.47  10:  9.35  11:  8.66  12:  7.59  13:  6.72  14:  3.95  15:  8.94  16:  9.75
  17: 13.15  18: 12.94  19:  8.82  20: 21.36  21:  9.97  22: 11.17  23: 11.30  24: 12.04
  25: 13.53  26: 15.97  27:  3.85  28:  4.36  29:  5.32  30:  3.31  31:  3.54  32:  4.19
  33:  3.03  34: 10.20  35:  3.34  36:  3.01  37:  3.72  38:  4.26  39:  9.60  40:  9.35
  41:  7.94  42:  7.18  43:  5.86  44:  1.34  45:  2.00  46:  3.60  47:  3.39  48:  4.30
  49:  4.27  50:  3.36  51: 11.95  52:  2.92  53:  2.91  54:  8.58  55:  2.06  56:  2.01
  57:  8.41  58:  1.52  59:  1.54  60:  1.55  61:  1.55  62: 11.45  63: 11.46  64:  1.86
  65:  1.90  66:  1.57  67:  1.62  68:  1.91  69:  1.87  70:  1.80  71:  1.92  72:  1.43
  73:  1.36  74:  1.78  75:  1.77  76:  1.82  77:  1.87  78:  1.92
 IR intensities (km·mol⁻¹)
   1:  0.12   2:  0.14   3:  0.04   4:  0.08   5:  0.08   6:  0.04   7:  0.23   8:  0.04
   9:  0.07  10:  0.01  11:  0.44  12:  0.15  13:  0.23  14:  0.33  15:  0.04  16:  0.51
  17:  0.03  18:  0.29  19:  0.03  20:  9.99  21:  2.12  22:  0.14  23:  4.19  24:  5.56
  25:  5.34  26: 48.76  27:  9.81  28: 23.32  29: 22.76  30:  0.03  31:  0.01  32:  0.03
  33:  0.01  34:  1.64  35:  1.30  36:  4.49  37:  2.13  38:  1.44  39:  2.82  40:  3.04
  41:  0.10  42:  3.54  43:  4.03  44:  0.02  45:  0.77  46:  1.55  47:  1.36  48:  8.83
  49:  6.66  50:  1.31  51:  0.86  52:  1.53  53:  2.65  54:  1.67  55:  0.21  56:  0.28
  57:  0.66  58:  2.58  59:  2.89  60:  1.88  61:  0.96  62:  0.55  63:  0.54  64: 11.40
  65: 32.05  66:  8.12  67: 31.89  68: 50.67  69: 50.40  70: 29.19  71: 35.75  72: 16.81
  73: 23.74  74: 13.36  75:  2.90  76:  9.04  77: 90.47  78: 61.03
 Raman intensities (Ä⁴*amu⁻¹)
   1:  0.00   2:  0.00   3:  0.00   4:  0.00   5:  0.00   6:  0.00   7:  0.00   8:  0.00
   9:  0.00  10:  0.00  11:  0.00  12:  0.00  13:  0.00  14:  0.00  15:  0.00  16:  0.00
  17:  0.00  18:  0.00  19:  0.00  20:  0.00  21:  0.00  22:  0.00  23:  0.00  24:  0.00
  25:  0.00  26:  0.00  27:  0.00  28:  0.00  29:  0.00  30:  0.00  31:  0.00  32:  0.00
  33:  0.00  34:  0.00  35:  0.00  36:  0.00  37:  0.00  38:  0.00  39:  0.00  40:  0.00
  41:  0.00  42:  0.00  43:  0.00  44:  0.00  45:  0.00  46:  0.00  47:  0.00  48:  0.00
  49:  0.00  50:  0.00  51:  0.00  52:  0.00  53:  0.00  54:  0.00  55:  0.00  56:  0.00
  57:  0.00  58:  0.00  59:  0.00  60:  0.00  61:  0.00  62:  0.00  63:  0.00  64:  0.00
  65:  0.00  66:  0.00  67:  0.00  68:  0.00  69:  0.00  70:  0.00  71:  0.00  72:  0.00
  73:  0.00  74:  0.00  75:  0.00  76:  0.00  77:  0.00  78:  0.00
 output can be read by thermo (or use thermo option).
 writing <g98.out> molden fake output.
 recommended (thermochemical) frequency scaling factor: 1.0
           -------------------------------------------------
          |             Thermodynamic Functions             |
           -------------------------------------------------

Refinement of some symmetry elements was terminated before convergence was reached.
Some symmetry elements may remain unidentified.
Molecule has no symmetry elements
It seems to be the C1 point group
c1  symmetry found (for desy threshold:  0.10E+00) used in thermo
 inverting freq            1   11.9031544310150     

          ...................................................
          :                      SETUP                      :
          :.................................................:
          :  # frequencies                          72      :
          :  # imaginary freq.                       0      :
          :  linear?                             false      :
          :  only rotor calc.                    false      :
          :  symmetry                               c1      :
          :  rotational number                       1      :
          :  scaling factor                  1.0000000      :
          :  rotor cutoff                   50.0000000 cm⁻¹ :
          :  imag. cutoff                  -20.0000000 cm⁻¹ :
          :.................................................:

    mode    ω/cm⁻¹     T·S(HO)/kcal·mol⁻¹    T·S(FR)/kcal·mol⁻¹   T·S(vib)
   ------------------------------------------------------------------------
       1     11.90    -2.28529 (  0.32%)    -1.48112 ( 99.68%)    -1.48370
       2     47.85    -1.46217 ( 45.62%)    -1.06940 ( 54.38%)    -1.24860
       3     69.78    -1.24015 ( 79.14%)    -0.95769 ( 20.86%)    -1.18123
       4     96.48    -1.05072 ( 93.27%)    -0.86174 (  6.73%)    -1.03801
       5    134.88    -0.85725 ( 98.15%)    -0.76251 (  1.85%)    -0.85549
       6    158.80    -0.76448 ( 99.03%)    -0.71417 (  0.97%)    -0.76399
       7    199.71    -0.63677 ( 99.61%)    -0.64626 (  0.39%)    -0.63681
       8    214.08    -0.59886 ( 99.70%)    -0.62568 (  0.30%)    -0.59894
       9    228.16    -0.56451 ( 99.77%)    -0.60681 (  0.23%)    -0.56460
      10    266.85    -0.48197 ( 99.88%)    -0.56042 (  0.12%)    -0.48206
      11    298.62    -0.42475 ( 99.92%)    -0.52710 (  0.08%)    -0.42483
   ------------------------------------------------------------------------

   temp. (K)  partition function   enthalpy   heat capacity  entropy
                                   cal/mol     cal/K/mol   cal/K/mol   J/K/mol
 298.15  VIB  0.663E+05             6282.906     39.145     39.484
         ROT  0.122E+07              888.752      2.981     30.835
         INT  0.810E+11             7171.658     42.126     70.319
         TR   0.207E+28             1481.254      4.968     41.214
         TOT                        8652.9124    47.0940   111.5327   466.6528

       T/K    H(0)-H(T)+PV         H(T)/Eh          T*S/Eh         G(T)/Eh
   ------------------------------------------------------------------------
    298.15    0.137893E-01    0.232248E+00    0.529928E-01    0.179256E+00
   ------------------------------------------------------------------------

         :::::::::::::::::::::::::::::::::::::::::::::::::::::
         ::                  THERMODYNAMIC                  ::
         :::::::::::::::::::::::::::::::::::::::::::::::::::::
         :: total free energy         -31.376791669359 Eh   ::
         ::.................................................::
         :: total energy              -31.556047354312 Eh   ::
         :: zero point energy           0.218459179018 Eh   ::
         :: G(RRHO) w/o ZPVE           -0.039203494064 Eh   ::
         :: G(RRHO) contrib.            0.179255684954 Eh   ::
         :::::::::::::::::::::::::::::::::::::::::::::::::::::
imag cut-off (cm-1) :    5.00
 found            1  significant imaginary frequency
 writing imag mode distorted coords to xtbhess.xyz
 for further optimization.

optimized geometry written to: xtbopt.xyz


           -------------------------------------------------
          | TOTAL ENERGY              -31.556047354312 Eh   |
          | TOTAL ENTHALPY            -31.323798881703 Eh   |
          | TOTAL FREE ENERGY         -31.376791669359 Eh   |
          | GRADIENT NORM               0.000040975654 Eh/α |
          | HOMO-LUMO GAP               3.648924808214 eV   |
           -------------------------------------------------

------------------------------------------------------------------------
 * finished run on 2025/07/14 at 11:32:59.743     
------------------------------------------------------------------------
 total:
 * wall-time:     0 d,  0 h,  0 min,  6.780 sec
 *  cpu-time:     0 d,  0 h,  1 min,  8.691 sec
 * ratio c/w:    10.131 speedup
 SCF:
 * wall-time:     0 d,  0 h,  0 min,  0.087 sec
 *  cpu-time:     0 d,  0 h,  0 min,  1.038 sec
 * ratio c/w:    11.972 speedup
 ANC optimizer:
 * wall-time:     0 d,  0 h,  0 min,  3.573 sec
 *  cpu-time:     0 d,  0 h,  0 min, 42.355 sec
 * ratio c/w:    11.854 speedup
 analytical hessian:
 * wall-time:     0 d,  0 h,  0 min,  3.109 sec
 *  cpu-time:     0 d,  0 h,  0 min, 25.187 sec
 * ratio c/w:     8.101 speedup

