      -----------------------------------------------------------      
     |                   =====================                   |     
     |                           x T B                           |     
     |                   =====================                   |     
     |                         S. Grimme                         |     
     |          Mulliken Center for Theoretical Chemistry        |     
     |                    University of Bonn                     |     
      -----------------------------------------------------------      

   * xtb version 6.7.0 (08769fc) compiled by 'albert@albert-system' on 2024-03-04

   xtb is free software: you can redistribute it and/or modify it under
   the terms of the GNU Lesser General Public License as published by
   the Free Software Foundation, either version 3 of the License, or
   (at your option) any later version.
   
   xtb is distributed in the hope that it will be useful,
   but WITHOUT ANY WARRANTY; without even the implied warranty of
   MERCHANTABILITY or FITNESS FOR A PARTICULAR PURPOSE.  See the
   GNU Lesser General Public License for more details.
   
   Cite this work as:
   * C. Bannwarth, E. Caldeweyher, S. Ehlert, A. Hansen, P. Pracht,
     J. Seibert, S. Spicher, S. Grimme, WIREs Comput. Mol. Sci., 2020, 11,
     e01493. DOI: 10.1002/wcms.1493
   
   for GFN2-xTB:
   * C. Bannwarth, S. Ehlert and S. Grimme., J. Chem. Theory Comput., 2019,
     15, 1652-1671. DOI: 10.1021/acs.jctc.8b01176
   for GFN1-xTB:
   * S. Grimme, C. Bannwarth, P. Shushkov, J. Chem. Theory Comput., 2017,
     13, 1989-2009. DOI: 10.1021/acs.jctc.7b00118
   for GFN0-xTB:
   * P. Pracht, E. Caldeweyher, S. Ehlert, S. Grimme, ChemRxiv, 2019, preprint.
     DOI: 10.26434/chemrxiv.8326202.v1
   for GFN-FF:
   * S. Spicher and S. Grimme, Angew. Chem. Int. Ed., 2020, 59, 15665-15673.
     DOI: 10.1002/anie.202004239
   
   for ALPB and GBSA implicit solvation:
   * S. Ehlert, M. Stahn, S. Spicher, S. Grimme, J. Chem. Theory Comput.,
     2021, 17, 4250-4261. DOI: 10.1021/acs.jctc.1c00471
   
   for ddCOSMO and CPCM-X implicit solvation:
   * M. Stahn, S. Ehlert, S. Grimme, J. Phys. Chem. A,
     2023, XX, XXXX-XXXX. DOI: 10.1021/acs.jpca.3c04382
   
   for DFT-D4:
   * E. Caldeweyher, C. Bannwarth and S. Grimme, J. Chem. Phys., 2017,
     147, 034112. DOI: 10.1063/1.4993215
   * E. Caldeweyher, S. Ehlert, A. Hansen, H. Neugebauer, S. Spicher,
     C. Bannwarth and S. Grimme, J. Chem. Phys., 2019, 150, 154122.
     DOI: 10.1063/1.5090222
   * E. Caldeweyher, J.-M. Mewes, S. Ehlert and S. Grimme, Phys. Chem. Chem. Phys.
     2020, 22, 8499-8512. DOI: 10.1039/D0CP00502A
   
   for sTDA-xTB:
   * S. Grimme and C. Bannwarth, J. Chem. Phys., 2016, 145, 054103.
     DOI: 10.1063/1.4959605
   
   in the mass-spec context:
   * V. Asgeirsson, C. Bauer and S. Grimme, Chem. Sci., 2017, 8, 4879.
     DOI: 10.1039/c7sc00601b
   * J. Koopman and S. Grimme, ACS Omega 2019, 4, 12, 15120-15133.
     DOI: 10.1021/acsomega.9b02011
   
   for metadynamics refer to:
   * S. Grimme, J. Chem. Theory Comput., 2019, 155, 2847-2862
     DOI: 10.1021/acs.jctc.9b00143
   
   for SPH calculations refer to:
   * S. Spicher and S. Grimme, J. Chem. Theory Comput., 2021, 17, 1701-1714
     DOI: 10.1021/acs.jctc.0c01306
   
   for ONIOM refer to:
   * C. Plett, A. Katbashev, S. Ehlert, S. Grimme, M. Bursch,
     Phys. Chem. Chem. Phys., 2023, 25, 17860-17868. DOI: 10.1039/D3CP02178E
   
   for DIPRO refer to:
   * J. Kohn, N. Gildemeister, S. Grimme, D. Fazzi, A. Hansen,
     J. Chem. Phys., 2023, just accepted.
   
   for PTB refer to:
   * S. Grimme, M. Mueller, A. Hansen, J. Chem. Phys., 2023, 158, 124111.
     DOI: 10.1063/5.0137838
   
   with help from (in alphabetical order)
   P. Atkinson, C. Bannwarth, F. Bohle, G. Brandenburg, E. Caldeweyher
   M. Checinski, S. Dohm, S. Ehlert, S. Ehrlich, I. Gerasimov, C. Hölzer
   A. Katbashev, J. Kohn, J. Koopman, C. Lavigne, S. Lehtola, F. März, M. Müller,
   F. Musil, H. Neugebauer, J. Pisarek, C. Plett, P. Pracht, F. Pultar,
   J. Seibert, P. Shushkov, S. Spicher, M. Stahn, M. Steiner, T. Strunk,
   J. Stückrath, T. Rose, and J. Unsleber
   
 * started run on 2025/07/14 at 11:28:48.833     
   ID    Z sym.   atoms
    1   15 P      1
    2    6 C      2, 5, 9-14, 20, 23
    3    1 H      3, 4, 6-8, 15-19, 21, 22, 24-26

           -------------------------------------------------
          |                Calculation Setup                |
           -------------------------------------------------

          program call               : /home/minenky/programs/xtb/xtb-dist/bin/xtb m1_00_PEt2Ph-PBE0-D3-TZ-uniMM_26.xyz --charge 0 --T --ohess extreme --cycles 5000 --acc 0.01 --iterations 5000
          coordinate file            : m1_00_PEt2Ph-PBE0-D3-TZ-uniMM_26.xyz
          omp threads                :                    12

########################################################################
[WARNING] Please study the warnings concerning your input carefully
-1- prog_main_parseArguments: Unknown option '--T' provided
########################################################################

           -------------------------------------------------
          |                 G F N 2 - x T B                 |
           -------------------------------------------------

        Reference                      10.1021/acs.jctc.8b01176
      * Hamiltonian:
        H0-scaling (s, p, d)           1.850000    2.230000    2.230000
        zeta-weighting                 0.500000
      * Dispersion:
        s8                             2.700000
        a1                             0.520000
        a2                             5.000000
        s9                             5.000000
      * Repulsion:
        kExp                           1.500000    1.000000
        rExp                           1.000000
      * Coulomb:
        alpha                          2.000000
        third order                    shell-resolved
        anisotropic                    true
        a3                             3.000000
        a5                             4.000000
        cn-shift                       1.200000
        cn-exp                         4.000000
        max-rad                        5.000000


          ...................................................
          :                      SETUP                      :
          :.................................................:
          :  # basis functions                  65          :
          :  # atomic orbitals                  64          :
          :  # shells                           38          :
          :  # electrons                        60          :
          :  max. iterations                  5000          :
          :  Hamiltonian                  GFN2-xTB          :
          :  restarted?                      false          :
          :  GBSA solvation                  false          :
          :  PC potential                    false          :
          :  electronic temp.          300.0000000     K    :
          :  accuracy                    0.0100000          :
          :  -> integral cutoff          0.4500000E+02      :
          :  -> integral neglect         0.1000000E-09      :
          :  -> SCF convergence          0.1000000E-07 Eh   :
          :  -> wf. convergence          0.1000000E-05 e    :
          :  Broyden damping             0.4000000          :
          :  net charge                          0          :
          :  unpaired electrons                  0          :
          ...................................................

 iter      E             dE          RMSdq      gap      omega  full diag
   1    -32.0134210 -0.320134E+02  0.364E+00    4.07       0.0  T
   2    -32.0582606 -0.448396E-01  0.216E+00    3.63       1.0  T
   3    -32.0583487 -0.880556E-04  0.857E-01    3.38       1.0  T
   4    -32.0590248 -0.676085E-03  0.257E-01    3.42       1.0  T
   5    -32.0601339 -0.110918E-02  0.119E-01    3.45       1.0  T
   6    -32.0603298 -0.195832E-03  0.428E-02    3.44       1.0  T
   7    -32.0603440 -0.142083E-04  0.162E-02    3.44       1.2  T
   8    -32.0603452 -0.121039E-05  0.654E-03    3.44       3.0  T
   9    -32.0603457 -0.489608E-06  0.147E-03    3.44      13.4  T
  10    -32.0603457 -0.271492E-07  0.612E-04    3.44      32.1  T
  11    -32.0603457 -0.358916E-09  0.262E-04    3.44      74.9  T
  12    -32.0603457 -0.502887E-09  0.581E-05    3.44     337.4  T
  13    -32.0603457 -0.115818E-10  0.263E-05    3.44     745.0  T
  14    -32.0603457 -0.301270E-11  0.932E-06    3.44    2103.5  T
  15    -32.0603457 -0.170530E-12  0.326E-06    3.44    6010.8  T

   *** convergence criteria satisfied after 15 iterations ***

         #    Occupation            Energy/Eh            Energy/eV
      -------------------------------------------------------------
         1        2.0000           -0.6597896             -17.9538
       ...           ...                  ...                  ...
        24        2.0000           -0.4348178             -11.8320
        25        2.0000           -0.4244078             -11.5487
        26        2.0000           -0.4172500             -11.3539
        27        2.0000           -0.4069165             -11.0728
        28        2.0000           -0.4028367             -10.9617
        29        2.0000           -0.3999986             -10.8845
        30        2.0000           -0.3582317              -9.7480 (HOMO)
        31                         -0.2316794              -6.3043 (LUMO)
        32                         -0.2232532              -6.0750
        33                         -0.1604014              -4.3647
        34                         -0.1396383              -3.7998
        35                         -0.0939556              -2.5567
       ...                                ...                  ...
        64                          0.7720809              21.0094
      -------------------------------------------------------------
                  HL-Gap            0.1265523 Eh            3.4437 eV
             Fermi-level           -0.2949556 Eh           -8.0261 eV

 SCC (total)                   0 d,  0 h,  0 min,  0.086 sec
 SCC setup                      ...        0 min,  0.000 sec (  0.150%)
 Dispersion                     ...        0 min,  0.000 sec (  0.147%)
 classical contributions        ...        0 min,  0.000 sec (  0.012%)
 integral evaluation            ...        0 min,  0.002 sec (  2.150%)
 iterations                     ...        0 min,  0.082 sec ( 95.293%)
 molecular gradient             ...        0 min,  0.002 sec (  2.139%)
 printout                       ...        0 min,  0.000 sec (  0.088%)

         :::::::::::::::::::::::::::::::::::::::::::::::::::::
         ::                     SUMMARY                     ::
         :::::::::::::::::::::::::::::::::::::::::::::::::::::
         :: total energy             -31.545527983807 Eh    ::
         :: gradient norm              0.035775347670 Eh/a0 ::
         :: HOMO-LUMO gap              3.443662223806 eV    ::
         ::.................................................::
         :: SCC energy               -32.060155095079 Eh    ::
         :: -> isotropic ES            0.004093932097 Eh    ::
         :: -> anisotropic ES          0.006124942514 Eh    ::
         :: -> anisotropic XC          0.021911911500 Eh    ::
         :: -> dispersion             -0.023980486788 Eh    ::
         :: repulsion energy           0.514627111272 Eh    ::
         :: add. restraining           0.000000000000 Eh    ::
         :: total charge              -0.000000000000 e     ::
         :::::::::::::::::::::::::::::::::::::::::::::::::::::

      ----------------------------------------------------------- 
     |                   =====================                   |
     |                        A N C O P T                        |
     |                   =====================                   |
     |               Approximate Normal Coordinate               |
     |                Rational Function Optimizer                |
      ----------------------------------------------------------- 
      ----------------------------------------------------------- 
     |                   =====================                   |
     |                        A N C O P T                        |
     |                   =====================                   |
     |               Approximate Normal Coordinate               |
     |                Rational Function Optimizer                |
      ----------------------------------------------------------- 

          ...................................................
          :                      SETUP                      :
          :.................................................:
          :   optimization level           extreme          :
          :   max. optcycles                  5000          :
          :   ANC micro-cycles                  20          :
          :   degrees of freedom                72          :
          :.................................................:
          :   RF solver                   davidson          :
          :   write xtbopt.log                true          :
          :   linear?                        false          :
          :   energy convergence         0.5000000E-07 Eh   :
          :   grad. convergence          0.5000000E-04 Eh/α :
          :   maxmium RF displ.          1.0000000          :
          :   Hlow (freq-cutoff)         0.1000000E-01      :
          :   Hmax (freq-cutoff)         5.0000000          :
          :   S6 in model hess.         20.0000000          :
          ...................................................

generating ANC from model Hessian ...
Using Lindh-Hessian (1995)
 Shifting diagonal of input Hessian by   9.550134330947100E-003
 Lowest  eigenvalues of input Hessian
    0.000000    0.000000    0.000000    0.000000    0.000000    0.000000
    0.010000    0.010566    0.010895    0.011064    0.011679    0.012984
    0.015289    0.017190    0.018920    0.020109    0.024044    0.024508
 Highest eigenvalues
    1.347119    1.535170    1.562099    1.864320    1.966035    1.985955
 

........................................................................
.............................. CYCLE    1 ..............................
........................................................................

 iter      E             dE          RMSdq      gap      omega  full diag
   1    -32.0603457 -0.320603E+02  0.110E-06    3.44       0.0  T
   2    -32.0603457  0.284217E-13  0.665E-07    3.44   29473.3  T
   3    -32.0603457  0.000000E+00  0.420E-07    3.44   46663.1  T
     SCC iter.                  ...        0 min,  0.073 sec
     gradient                   ...        0 min,  0.002 sec
 * total energy  :   -31.5455280 Eh     change       -0.2486900E-12 Eh
   gradient norm :     0.0357753 Eh/α   predicted     0.0000000E+00 (-100.00%)
   displ. norm   :     0.2331780 α      lambda       -0.4340399E-02
   maximum displ.:     0.0952719 α      in ANC's #21, #6, #17, ...

........................................................................
.............................. CYCLE    2 ..............................
........................................................................

 iter      E             dE          RMSdq      gap      omega  full diag
   1    -32.0657567 -0.320658E+02  0.247E-01    3.54       0.0  T
   2    -32.0658370 -0.802890E-04  0.123E-01    3.55       1.0  T
   3    -32.0658435 -0.656947E-05  0.430E-02    3.56       1.0  T
   4    -32.0658416  0.192223E-05  0.188E-02    3.56       1.0  T
   5    -32.0658459 -0.432187E-05  0.559E-03    3.56       3.5  T
   6    -32.0658463 -0.391632E-06  0.274E-03    3.56       7.2  T
   7    -32.0658464 -0.220527E-07  0.856E-04    3.56      22.9  T
   8    -32.0658464  0.557911E-09  0.298E-04    3.56      65.7  T
   9    -32.0658464 -0.197566E-08  0.669E-05    3.56     293.2  T
  10    -32.0658464 -0.894076E-10  0.270E-05    3.56     726.7  T
  11    -32.0658464 -0.353850E-11  0.113E-05    3.56    1737.8  T
  12    -32.0658464 -0.298428E-12  0.345E-06    3.56    5680.8  T
  13    -32.0658464 -0.852651E-13  0.173E-06    3.56   11313.1  T
     SCC iter.                  ...        0 min,  0.075 sec
     gradient                   ...        0 min,  0.002 sec
 * total energy  :   -31.5481579 Eh     change       -0.2629881E-02 Eh
   gradient norm :     0.0137241 Eh/α   predicted    -0.2288268E-02 ( -12.99%)
   displ. norm   :     0.2242893 α      lambda       -0.9621563E-03
   maximum displ.:     0.1206724 α      in ANC's #6, #1, #10, ...

........................................................................
.............................. CYCLE    3 ..............................
........................................................................

 iter      E             dE          RMSdq      gap      omega  full diag
   1    -32.0675565 -0.320676E+02  0.849E-02    3.55       0.0  T
   2    -32.0675594 -0.289072E-05  0.488E-02    3.55       1.0  T
   3    -32.0675587  0.654631E-06  0.110E-02    3.55       1.8  T
   4    -32.0675593 -0.604992E-06  0.563E-03    3.55       3.5  T
   5    -32.0675599 -0.542070E-06  0.161E-03    3.55      12.2  T
   6    -32.0675599 -0.127726E-07  0.814E-04    3.55      24.1  T
   7    -32.0675599 -0.661096E-09  0.202E-04    3.55      97.2  T
   8    -32.0675599 -0.346837E-09  0.811E-05    3.55     241.9  T
   9    -32.0675599 -0.101451E-09  0.177E-05    3.55    1105.7  T
  10    -32.0675599 -0.346745E-11  0.103E-05    3.55    1908.8  T
  11    -32.0675599 -0.596856E-12  0.341E-06    3.55    5753.2  T
  12    -32.0675599 -0.639488E-13  0.111E-06    3.55   17745.9  T
     SCC iter.                  ...        0 min,  0.075 sec
     gradient                   ...        0 min,  0.002 sec
 * total energy  :   -31.5487996 Eh     change       -0.6416980E-03 Eh
   gradient norm :     0.0060198 Eh/α   predicted    -0.5052805E-03 ( -21.26%)
   displ. norm   :     0.2531445 α      lambda       -0.5029359E-03
   maximum displ.:     0.1264884 α      in ANC's #3, #1, #5, ...

........................................................................
.............................. CYCLE    4 ..............................
........................................................................

 iter      E             dE          RMSdq      gap      omega  full diag
   1    -32.0676135 -0.320676E+02  0.800E-02    3.56       0.0  T
   2    -32.0676153 -0.176159E-05  0.462E-02    3.57       1.0  T
   3    -32.0676152  0.441322E-07  0.810E-03    3.57       2.4  T
   4    -32.0676155 -0.227703E-06  0.323E-03    3.57       6.1  T
   5    -32.0676155 -0.792519E-07  0.122E-03    3.57      16.0  T
   6    -32.0676156 -0.191917E-07  0.503E-04    3.57      39.0  T
   7    -32.0676156 -0.199499E-09  0.127E-04    3.57     154.7  T
   8    -32.0676156 -0.144205E-09  0.384E-05    3.57     511.3  T
   9    -32.0676156 -0.268088E-10  0.122E-05    3.57    1604.0  T
  10    -32.0676156 -0.831335E-12  0.689E-06    3.57    2846.1  T
  11    -32.0676156 -0.262901E-12  0.228E-06    3.57    8596.1  T
     SCC iter.                  ...        0 min,  0.073 sec
     gradient                   ...        0 min,  0.002 sec
 * total energy  :   -31.5491836 Eh     change       -0.3840507E-03 Eh
   gradient norm :     0.0063058 Eh/α   predicted    -0.2675894E-03 ( -30.32%)
   displ. norm   :     0.3988858 α      lambda       -0.5934519E-03
   maximum displ.:     0.2413892 α      in ANC's #3, #5, #1, ...

........................................................................
.............................. CYCLE    5 ..............................
........................................................................

 iter      E             dE          RMSdq      gap      omega  full diag
   1    -32.0667723 -0.320668E+02  0.110E-01    3.57       0.0  T
   2    -32.0667732 -0.969921E-06  0.646E-02    3.57       1.0  T
   3    -32.0667732  0.648699E-07  0.652E-03    3.57       3.0  T
   4    -32.0667734 -0.273193E-06  0.239E-03    3.57       8.2  T
   5    -32.0667735 -0.185394E-07  0.117E-03    3.57      16.8  T
   6    -32.0667735 -0.113958E-07  0.452E-04    3.57      43.4  T
   7    -32.0667735 -0.142020E-08  0.145E-04    3.57     134.8  T
   8    -32.0667735 -0.148439E-09  0.450E-05    3.57     435.5  T
   9    -32.0667735 -0.146301E-10  0.184E-05    3.57    1063.6  T
  10    -32.0667735 -0.290612E-11  0.686E-06    3.57    2859.4  T
  11    -32.0667735 -0.426326E-12  0.268E-06    3.57    7327.8  T
     SCC iter.                  ...        0 min,  0.074 sec
     gradient                   ...        0 min,  0.002 sec
 * total energy  :   -31.5496656 Eh     change       -0.4819579E-03 Eh
   gradient norm :     0.0090599 Eh/α   predicted    -0.3439431E-03 ( -28.64%)
   displ. norm   :     0.4433361 α      lambda       -0.6645334E-03
   maximum displ.:     0.2927474 α      in ANC's #3, #5, #1, ...

........................................................................
.............................. CYCLE    6 ..............................
........................................................................

 iter      E             dE          RMSdq      gap      omega  full diag
   1    -32.0660320 -0.320660E+02  0.117E-01    3.57       0.0  T
   2    -32.0660333 -0.134237E-05  0.685E-02    3.57       1.0  T
   3    -32.0660330  0.248401E-06  0.716E-03    3.57       2.7  T
   4    -32.0660336 -0.513683E-06  0.237E-03    3.57       8.3  T
   5    -32.0660336 -0.260535E-07  0.126E-03    3.57      15.5  T
   6    -32.0660336 -0.146979E-07  0.555E-04    3.57      35.3  T
   7    -32.0660336 -0.129058E-08  0.159E-04    3.57     123.4  T
   8    -32.0660336 -0.270006E-09  0.468E-05    3.57     419.0  T
   9    -32.0660336 -0.204352E-10  0.231E-05    3.57     847.3  T
  10    -32.0660336 -0.537881E-11  0.752E-06    3.57    2609.1  T
  11    -32.0660336 -0.518696E-12  0.346E-06    3.57    5667.7  T
     SCC iter.                  ...        0 min,  0.074 sec
     gradient                   ...        0 min,  0.002 sec
 * total energy  :   -31.5502275 Eh     change       -0.5619097E-03 Eh
   gradient norm :     0.0096141 Eh/α   predicted    -0.3975797E-03 ( -29.24%)
   displ. norm   :     0.4627552 α      lambda       -0.8230304E-03
   maximum displ.:     0.3282723 α      in ANC's #3, #5, #1, ...

........................................................................
.............................. CYCLE    7 ..............................
........................................................................

 iter      E             dE          RMSdq      gap      omega  full diag
   1    -32.0671852 -0.320672E+02  0.119E-01    3.57       0.0  T
   2    -32.0671873 -0.209933E-05  0.701E-02    3.57       1.0  T
   3    -32.0671866  0.668891E-06  0.861E-03    3.57       2.3  T
   4    -32.0671876 -0.946117E-06  0.329E-03    3.57       6.0  T
   5    -32.0671877 -0.156318E-06  0.135E-03    3.57      14.5  T
   6    -32.0671878 -0.270968E-07  0.631E-04    3.57      31.1  T
   7    -32.0671878 -0.589040E-09  0.188E-04    3.57     104.2  T
   8    -32.0671878 -0.311758E-09  0.775E-05    3.57     253.0  T
   9    -32.0671878 -0.110226E-09  0.174E-05    3.57    1127.5  T
  10    -32.0671878 -0.254374E-11  0.822E-06    3.57    2386.9  T
  11    -32.0671878 -0.383693E-12  0.330E-06    3.57    5935.8  T
     SCC iter.                  ...        0 min,  0.074 sec
     gradient                   ...        0 min,  0.002 sec
 * total energy  :   -31.5509164 Eh     change       -0.6889214E-03 Eh
   gradient norm :     0.0084670 Eh/α   predicted    -0.4996402E-03 ( -27.48%)
   displ. norm   :     0.5180568 α      lambda       -0.8861545E-03
   maximum displ.:     0.3826830 α      in ANC's #3, #5, #1, ...

........................................................................
.............................. CYCLE    8 ..............................
........................................................................

 iter      E             dE          RMSdq      gap      omega  full diag
   1    -32.0683671 -0.320684E+02  0.130E-01    3.57       0.0  T
   2    -32.0683698 -0.263510E-05  0.775E-02    3.57       1.0  T
   3    -32.0683682  0.161511E-05  0.122E-02    3.57       1.6  T
   4    -32.0683703 -0.210420E-05  0.279E-03    3.57       7.0  T
   5    -32.0683703 -0.673127E-07  0.139E-03    3.57      14.1  T
   6    -32.0683704 -0.377900E-07  0.525E-04    3.57      37.4  T
   7    -32.0683704 -0.131543E-09  0.195E-04    3.57     100.6  T
   8    -32.0683704 -0.498353E-09  0.550E-05    3.57     356.7  T
   9    -32.0683704 -0.318039E-10  0.198E-05    3.57     992.1  T
  10    -32.0683704 -0.463274E-11  0.919E-06    3.57    2133.7  T
  11    -32.0683704 -0.468958E-12  0.373E-06    3.57    5256.9  T
     SCC iter.                  ...        0 min,  0.074 sec
     gradient                   ...        0 min,  0.002 sec
 * total energy  :   -31.5516452 Eh     change       -0.7287978E-03 Eh
   gradient norm :     0.0072861 Eh/α   predicted    -0.5619931E-03 ( -22.89%)
   displ. norm   :     0.5060586 α      lambda       -0.8183941E-03
   maximum displ.:     0.4025947 α      in ANC's #3, #5, #1, ...

........................................................................
.............................. CYCLE    9 ..............................
........................................................................

 iter      E             dE          RMSdq      gap      omega  full diag
   1    -32.0723898 -0.320724E+02  0.123E-01    3.58       0.0  T
   2    -32.0723916 -0.186416E-05  0.716E-02    3.58       1.0  T
   3    -32.0723907  0.918464E-06  0.114E-02    3.58       1.7  T
   4    -32.0723920 -0.128975E-05  0.317E-03    3.58       6.2  T
   5    -32.0723920 -0.553890E-07  0.148E-03    3.58      13.3  T
   6    -32.0723921 -0.381316E-07  0.669E-04    3.58      29.3  T
   7    -32.0723921 -0.159376E-08  0.192E-04    3.58     102.2  T
   8    -32.0723921 -0.571490E-10  0.712E-05    3.58     275.6  T
   9    -32.0723921 -0.114461E-09  0.274E-05    3.58     714.7  T
  10    -32.0723921 -0.255795E-11  0.101E-05    3.58    1945.0  T
  11    -32.0723921 -0.149214E-12  0.378E-06    3.58    5191.4  T
  12    -32.0723921 -0.120792E-12  0.122E-06    3.58   16135.8  T
     SCC iter.                  ...        0 min,  0.075 sec
     gradient                   ...        0 min,  0.002 sec
 * total energy  :   -31.5522375 Eh     change       -0.5923283E-03 Eh
   gradient norm :     0.0080298 Eh/α   predicted    -0.5139943E-03 ( -13.22%)
   displ. norm   :     0.6369653 α      lambda       -0.7359986E-03
   maximum displ.:     0.4791676 α      in ANC's #3, #5, #1, ...

........................................................................
.............................. CYCLE   10 ..............................
........................................................................

 iter      E             dE          RMSdq      gap      omega  full diag
   1    -32.0657569 -0.320658E+02  0.156E-01    3.59       0.0  T
   2    -32.0657656 -0.863668E-05  0.911E-02    3.59       1.0  T
   3    -32.0657623  0.324739E-05  0.291E-02    3.59       1.0  T
   4    -32.0657671 -0.476046E-05  0.583E-03    3.59       3.4  T
   5    -32.0657672 -0.118501E-06  0.426E-03    3.59       4.6  T
   6    -32.0657674 -0.170189E-06  0.136E-03    3.59      14.4  T
   7    -32.0657674 -0.643020E-08  0.406E-04    3.59      48.3  T
   8    -32.0657674 -0.822098E-10  0.126E-04    3.59     155.4  T
   9    -32.0657674 -0.248590E-09  0.531E-05    3.59     369.1  T
  10    -32.0657674 -0.936495E-11  0.248E-05    3.59     792.1  T
  11    -32.0657674 -0.310507E-11  0.652E-06    3.59    3006.9  T
  12    -32.0657674 -0.163425E-12  0.203E-06    3.59    9671.9  T
     SCC iter.                  ...        0 min,  0.075 sec
     gradient                   ...        0 min,  0.002 sec
 * total energy  :   -31.5524677 Eh     change       -0.2302118E-03 Eh
   gradient norm :     0.0143486 Eh/α   predicted    -0.5173237E-03 ( 124.72%)
   displ. norm   :     0.1252491 α      lambda       -0.5880457E-03
   maximum displ.:     0.0862330 α      in ANC's #3, #4, #5, ...

........................................................................
.............................. CYCLE   11 ..............................
........................................................................

 iter      E             dE          RMSdq      gap      omega  full diag
   1    -32.0721837 -0.320722E+02  0.600E-02    3.59       0.0  T
   2    -32.0721878 -0.412686E-05  0.299E-02    3.59       1.0  T
   3    -32.0721880 -0.147488E-06  0.155E-02    3.59       1.3  T
   4    -32.0721882 -0.227259E-06  0.293E-03    3.59       6.7  T
   5    -32.0721882  0.104853E-08  0.185E-03    3.59      10.6  T
   6    -32.0721882 -0.908834E-08  0.445E-04    3.59      44.1  T
   7    -32.0721882 -0.308454E-08  0.136E-04    3.59     144.0  T
   8    -32.0721882 -0.128040E-09  0.665E-05    3.59     295.0  T
   9    -32.0721882 -0.186162E-10  0.248E-05    3.59     790.9  T
  10    -32.0721882 -0.184741E-11  0.121E-05    3.59    1626.6  T
  11    -32.0721882 -0.952127E-12  0.280E-06    3.59    6992.2  T
  12    -32.0721882 -0.710543E-13  0.926E-07    3.59   21173.6  T
     SCC iter.                  ...        0 min,  0.075 sec
     gradient                   ...        0 min,  0.002 sec
 * total energy  :   -31.5528202 Eh     change       -0.3524890E-03 Eh
   gradient norm :     0.0056350 Eh/α   predicted    -0.2986380E-03 ( -15.28%)
   displ. norm   :     0.3082962 α      lambda       -0.2749614E-03
   maximum displ.:     0.2672106 α      in ANC's #3, #2, #5, ...

........................................................................
.............................. CYCLE   12 ..............................
........................................................................

 iter      E             dE          RMSdq      gap      omega  full diag
   1    -32.0729831 -0.320730E+02  0.720E-02    3.60       0.0  T
   2    -32.0729842 -0.118131E-05  0.409E-02    3.59       1.0  T
   3    -32.0729839  0.304719E-06  0.890E-03    3.60       2.2  T
   4    -32.0729845 -0.520345E-06  0.164E-03    3.59      11.9  T
   5    -32.0729845 -0.187689E-07  0.103E-03    3.60      19.0  T
   6    -32.0729845 -0.124077E-07  0.280E-04    3.59      70.0  T
   7    -32.0729845 -0.113722E-09  0.105E-04    3.59     187.3  T
   8    -32.0729845 -0.564313E-10  0.358E-05    3.59     547.1  T
   9    -32.0729845 -0.106581E-11  0.147E-05    3.59    1338.6  T
  10    -32.0729845 -0.490274E-11  0.434E-06    3.59    4515.1  T
  11    -32.0729845 -0.781597E-13  0.140E-06    3.59   13996.4  T
     SCC iter.                  ...        0 min,  0.075 sec
     gradient                   ...        0 min,  0.002 sec
 * total energy  :   -31.5529993 Eh     change       -0.1791106E-03 Eh
   gradient norm :     0.0059527 Eh/α   predicted    -0.1505512E-03 ( -15.95%)
   displ. norm   :     0.3568880 α      lambda       -0.2404777E-03
   maximum displ.:     0.3051728 α      in ANC's #3, #2, #1, ...

........................................................................
.............................. CYCLE   13 ..............................
........................................................................

 iter      E             dE          RMSdq      gap      omega  full diag
   1    -32.0726621 -0.320727E+02  0.786E-02    3.60       0.0  T
   2    -32.0726626 -0.544573E-06  0.461E-02    3.60       1.0  T
   3    -32.0726621  0.483580E-06  0.714E-03    3.60       2.7  T
   4    -32.0726628 -0.639201E-06  0.171E-03    3.60      11.5  T
   5    -32.0726628 -0.182959E-07  0.100E-03    3.60      19.6  T
   6    -32.0726628 -0.138924E-07  0.415E-04    3.60      47.3  T
   7    -32.0726628 -0.269736E-09  0.643E-05    3.60     304.9  T
   8    -32.0726628 -0.427605E-10  0.253E-05    3.60     775.1  T
   9    -32.0726628 -0.427747E-11  0.989E-06    3.60    1982.7  T
  10    -32.0726628 -0.132871E-11  0.308E-06    3.60    6364.2  T
     SCC iter.                  ...        0 min,  0.074 sec
     gradient                   ...        0 min,  0.002 sec
 * total energy  :   -31.5531731 Eh     change       -0.1737664E-03 Eh
   gradient norm :     0.0051108 Eh/α   predicted    -0.1355557E-03 ( -21.99%)
   displ. norm   :     0.3213780 α      lambda       -0.2724284E-03
   maximum displ.:     0.2427987 α      in ANC's #3, #2, #6, ...

........................................................................
.............................. CYCLE   14 ..............................
........................................................................

 iter      E             dE          RMSdq      gap      omega  full diag
   1    -32.0734329 -0.320734E+02  0.873E-02    3.60       0.0  T
   2    -32.0734339 -0.942994E-06  0.506E-02    3.60       1.0  T
   3    -32.0734338  0.687122E-07  0.664E-03    3.60       3.0  T
   4    -32.0734340 -0.194389E-06  0.187E-03    3.60      10.5  T
   5    -32.0734340 -0.169997E-07  0.917E-04    3.60      21.4  T
   6    -32.0734340 -0.115641E-07  0.455E-04    3.60      43.1  T
   7    -32.0734340 -0.129902E-08  0.879E-05    3.60     223.0  T
   8    -32.0734340 -0.749125E-10  0.303E-05    3.60     646.4  T
   9    -32.0734340 -0.445510E-11  0.164E-05    3.60    1194.3  T
  10    -32.0734340 -0.134293E-11  0.488E-06    3.60    4017.4  T
  11    -32.0734340 -0.135003E-12  0.182E-06    3.60   10760.9  T
     SCC iter.                  ...        0 min,  0.075 sec
     gradient                   ...        0 min,  0.002 sec
 * total energy  :   -31.5533805 Eh     change       -0.2074042E-03 Eh
   gradient norm :     0.0055371 Eh/α   predicted    -0.1502854E-03 ( -27.54%)
   displ. norm   :     0.4880019 α      lambda       -0.3555546E-03
   maximum displ.:     0.3506780 α      in ANC's #3, #2, #6, ...

........................................................................
.............................. CYCLE   15 ..............................
........................................................................

 iter      E             dE          RMSdq      gap      omega  full diag
   1    -32.0707551 -0.320708E+02  0.135E-01    3.61       0.0  T
   2    -32.0707576 -0.249594E-05  0.773E-02    3.62       1.0  T
   3    -32.0707574  0.208130E-06  0.101E-02    3.62       1.9  T
   4    -32.0707580 -0.543835E-06  0.291E-03    3.62       6.7  T
   5    -32.0707580 -0.470647E-07  0.165E-03    3.62      11.9  T
   6    -32.0707580 -0.305687E-07  0.548E-04    3.62      35.8  T
   7    -32.0707580 -0.249393E-09  0.210E-04    3.62      93.3  T
   8    -32.0707580 -0.368814E-09  0.599E-05    3.62     327.1  T
   9    -32.0707580 -0.471587E-10  0.300E-05    3.62     654.0  T
  10    -32.0707580 -0.338218E-11  0.120E-05    3.62    1639.6  T
  11    -32.0707580 -0.104450E-11  0.451E-06    3.62    4347.9  T
  12    -32.0707580 -0.213163E-13  0.125E-06    3.62   15723.9  T
     SCC iter.                  ...        0 min,  0.075 sec
     gradient                   ...        0 min,  0.002 sec
 * total energy  :   -31.5536230 Eh     change       -0.2425006E-03 Eh
   gradient norm :     0.0092918 Eh/α   predicted    -0.2201213E-03 (  -9.23%)
   displ. norm   :     0.3996544 α      lambda       -0.4612275E-03
   maximum displ.:     0.2138861 α      in ANC's #2, #6, #3, ...

........................................................................
.............................. CYCLE   16 ..............................
........................................................................

 iter      E             dE          RMSdq      gap      omega  full diag
   1    -32.0728251 -0.320728E+02  0.143E-01    3.62       0.0  T
   2    -32.0728273 -0.217733E-05  0.827E-02    3.63       1.0  T
   3    -32.0728248  0.245657E-05  0.137E-02    3.63       1.4  T
   4    -32.0728277 -0.287748E-05  0.420E-03    3.63       4.7  T
   5    -32.0728280 -0.246458E-06  0.221E-03    3.63       8.9  T
   6    -32.0728280 -0.353147E-07  0.730E-04    3.63      26.9  T
   7    -32.0728280 -0.523158E-09  0.143E-04    3.63     137.3  T
   8    -32.0728280 -0.370981E-09  0.587E-05    3.63     334.2  T
   9    -32.0728280 -0.314486E-10  0.295E-05    3.63     665.9  T
  10    -32.0728280 -0.316192E-11  0.124E-05    3.63    1585.2  T
  11    -32.0728280 -0.653699E-12  0.342E-06    3.63    5735.0  T
  12    -32.0728280 -0.639488E-13  0.134E-06    3.63   14623.4  T
     SCC iter.                  ...        0 min,  0.076 sec
     gradient                   ...        0 min,  0.002 sec
 * total energy  :   -31.5539199 Eh     change       -0.2969376E-03 Eh
   gradient norm :     0.0091445 Eh/α   predicted    -0.2674483E-03 (  -9.93%)
   displ. norm   :     0.5365262 α      lambda       -0.4243925E-03
   maximum displ.:     0.3543901 α      in ANC's #3, #2, #6, ...

........................................................................
.............................. CYCLE   17 ..............................
........................................................................

 iter      E             dE          RMSdq      gap      omega  full diag
   1    -32.0682460 -0.320682E+02  0.168E-01    3.63       0.0  T
   2    -32.0682522 -0.618001E-05  0.975E-02    3.64       1.0  T
   3    -32.0682509  0.135410E-05  0.150E-02    3.63       1.3  T
   4    -32.0682526 -0.178627E-05  0.514E-03    3.64       3.8  T
   5    -32.0682530 -0.392318E-06  0.215E-03    3.64       9.1  T
   6    -32.0682531 -0.428363E-07  0.794E-04    3.64      24.7  T
   7    -32.0682531 -0.348564E-09  0.326E-04    3.64      60.2  T
   8    -32.0682531 -0.591058E-09  0.107E-04    3.64     184.1  T
   9    -32.0682531 -0.900755E-10  0.588E-05    3.64     333.5  T
  10    -32.0682531 -0.156959E-10  0.107E-05    3.64    1826.1  T
  11    -32.0682531 -0.115108E-11  0.371E-06    3.64    5280.2  T
  12    -32.0682531 -0.497380E-13  0.146E-06    3.64   13456.9  T
     SCC iter.                  ...        0 min,  0.076 sec
     gradient                   ...        0 min,  0.002 sec
 * total energy  :   -31.5541605 Eh     change       -0.2405357E-03 Eh
   gradient norm :     0.0107712 Eh/α   predicted    -0.2732824E-03 (  13.61%)
   displ. norm   :     0.2297111 α      lambda       -0.4857020E-03
   maximum displ.:     0.1323450 α      in ANC's #1, #2, #5, ...

........................................................................
.............................. CYCLE   18 ..............................
........................................................................

 iter      E             dE          RMSdq      gap      omega  full diag
   1    -32.0755012 -0.320755E+02  0.110E-01    3.65       0.0  T
   2    -32.0755060 -0.478907E-05  0.636E-02    3.65       1.0  T
   3    -32.0755045  0.150471E-05  0.169E-02    3.64       1.2  T
   4    -32.0755064 -0.186503E-05  0.455E-03    3.65       4.3  T
   5    -32.0755067 -0.323973E-06  0.236E-03    3.65       8.3  T
   6    -32.0755068 -0.603385E-07  0.902E-04    3.65      21.7  T
   7    -32.0755068 -0.159406E-08  0.281E-04    3.65      69.8  T
   8    -32.0755068 -0.133397E-09  0.656E-05    3.65     298.8  T
   9    -32.0755068 -0.425544E-10  0.330E-05    3.65     594.7  T
  10    -32.0755068 -0.775202E-11  0.111E-05    3.65    1764.1  T
  11    -32.0755068 -0.312639E-12  0.359E-06    3.65    5466.3  T
  12    -32.0755068 -0.994760E-13  0.108E-06    3.65   18171.2  T
     SCC iter.                  ...        0 min,  0.075 sec
     gradient                   ...        0 min,  0.002 sec
 * total energy  :   -31.5544100 Eh     change       -0.2494992E-03 Eh
   gradient norm :     0.0080150 Eh/α   predicted    -0.2556691E-03 (   2.47%)
   displ. norm   :     0.4978902 α      lambda       -0.4684960E-03
   maximum displ.:     0.2577719 α      in ANC's #3, #2, #1, ...

........................................................................
.............................. CYCLE   19 ..............................
........................................................................

 iter      E             dE          RMSdq      gap      omega  full diag
   1    -32.0748312 -0.320748E+02  0.193E-01    3.64       0.0  T
   2    -32.0748365 -0.532687E-05  0.111E-01    3.65       1.0  T
   3    -32.0748340  0.248092E-05  0.208E-02    3.64       1.0  T
   4    -32.0748375 -0.351595E-05  0.474E-03    3.64       4.1  T
   5    -32.0748376 -0.374534E-07  0.333E-03    3.64       5.9  T
   6    -32.0748377 -0.108647E-06  0.109E-03    3.64      18.0  T
   7    -32.0748377 -0.116274E-08  0.289E-04    3.64      67.8  T
   8    -32.0748377 -0.103110E-08  0.840E-05    3.64     233.4  T
   9    -32.0748377 -0.858194E-10  0.409E-05    3.64     479.1  T
  10    -32.0748377 -0.105018E-10  0.174E-05    3.64    1126.6  T
  11    -32.0748377 -0.103029E-11  0.487E-06    3.64    4028.1  T
  12    -32.0748377 -0.923706E-13  0.151E-06    3.64   13025.2  T
     SCC iter.                  ...        0 min,  0.075 sec
     gradient                   ...        0 min,  0.002 sec
 * total energy  :   -31.5545990 Eh     change       -0.1890057E-03 Eh
   gradient norm :     0.0105022 Eh/α   predicted    -0.2923257E-03 (  54.67%)
   displ. norm   :     0.1205310 α      lambda       -0.2309070E-03
   maximum displ.:     0.0838242 α      in ANC's #3, #2, #1, ...

........................................................................
.............................. CYCLE   20 ..............................
........................................................................

 iter      E             dE          RMSdq      gap      omega  full diag
   1    -32.0752071 -0.320752E+02  0.524E-02    3.65       0.0  T
   2    -32.0752093 -0.221180E-05  0.283E-02    3.66       1.0  T
   3    -32.0752091  0.239417E-06  0.127E-02    3.66       1.5  T
   4    -32.0752097 -0.611167E-06  0.248E-03    3.66       7.9  T
   5    -32.0752097 -0.705407E-08  0.187E-03    3.66      10.5  T
   6    -32.0752097 -0.429006E-07  0.660E-04    3.66      29.7  T
   7    -32.0752097 -0.584315E-09  0.187E-04    3.66     105.0  T
   8    -32.0752098 -0.299863E-09  0.536E-05    3.66     366.1  T
   9    -32.0752098 -0.106937E-10  0.184E-05    3.66    1066.9  T
  10    -32.0752098 -0.242295E-11  0.860E-06    3.66    2280.8  T
  11    -32.0752098 -0.618172E-12  0.223E-06    3.66    8805.7  T
     SCC iter.                  ...        0 min,  0.075 sec
     gradient                   ...        0 min,  0.002 sec
 * total energy  :   -31.5547292 Eh     change       -0.1302411E-03 Eh
   gradient norm :     0.0070419 Eh/α   predicted    -0.1171355E-03 ( -10.06%)
   displ. norm   :     0.2236927 α      lambda       -0.2107338E-03
   maximum displ.:     0.1067641 α      in ANC's #1, #3, #2, ...
 * RMSD in coord.:     1.1131292 α      energy gain  -0.9201247E-02 Eh

generating ANC from model Hessian ...
Using Lindh-Hessian (1995)
 Shifting diagonal of input Hessian by   9.142914146235427E-003
 Lowest  eigenvalues of input Hessian
    0.000000    0.000000    0.000000    0.000000    0.000000    0.000000
    0.010000    0.010177    0.010466    0.011161    0.011873    0.012743
    0.014908    0.017340    0.017863    0.019377    0.022751    0.024128
 Highest eigenvalues
    1.362986    1.551388    1.575106    1.880657    1.986323    2.003497
 

........................................................................
.............................. CYCLE   21 ..............................
........................................................................

 iter      E             dE          RMSdq      gap      omega  full diag
   1    -32.0750659 -0.320751E+02  0.961E-02    3.66       0.0  T
   2    -32.0750678 -0.192607E-05  0.567E-02    3.66       1.0  T
   3    -32.0750674  0.440009E-06  0.879E-03    3.66       2.2  T
   4    -32.0750680 -0.658147E-06  0.241E-03    3.66       8.1  T
   5    -32.0750681 -0.511531E-07  0.150E-03    3.66      13.1  T
   6    -32.0750681 -0.229326E-07  0.510E-04    3.66      38.4  T
   7    -32.0750681 -0.157987E-08  0.143E-04    3.66     137.6  T
   8    -32.0750681 -0.615330E-10  0.581E-05    3.66     337.4  T
   9    -32.0750681 -0.189004E-10  0.282E-05    3.66     694.7  T
  10    -32.0750681 -0.146372E-11  0.719E-06    3.66    2729.5  T
  11    -32.0750681 -0.270006E-12  0.305E-06    3.66    6432.7  T
     SCC iter.                  ...        0 min,  0.076 sec
     gradient                   ...        0 min,  0.002 sec
 * total energy  :   -31.5548278 Eh     change       -0.9852703E-04 Eh
   gradient norm :     0.0054619 Eh/α   predicted     0.0000000E+00 (-100.00%)
   displ. norm   :     0.0570567 α      lambda       -0.8830441E-04
   maximum displ.:     0.0374890 α      in ANC's #2, #4, #9, ...

........................................................................
.............................. CYCLE   22 ..............................
........................................................................

 iter      E             dE          RMSdq      gap      omega  full diag
   1    -32.0758421 -0.320758E+02  0.271E-02    3.66       0.0  T
   2    -32.0758425 -0.371500E-06  0.153E-02    3.66       1.3  T
   3    -32.0758425 -0.196314E-08  0.300E-03    3.66       6.5  T
   4    -32.0758425 -0.253465E-07  0.110E-03    3.66      17.9  T
   5    -32.0758425 -0.125387E-07  0.453E-04    3.66      43.3  T
   6    -32.0758425 -0.165450E-08  0.183E-04    3.66     107.4  T
   7    -32.0758425 -0.205297E-09  0.838E-05    3.66     234.0  T
   8    -32.0758425 -0.370193E-10  0.195E-05    3.66    1008.0  T
   9    -32.0758425 -0.273559E-11  0.927E-06    3.66    2115.6  T
  10    -32.0758425 -0.405009E-12  0.255E-06    3.66    7695.0  T
     SCC iter.                  ...        0 min,  0.079 sec
     gradient                   ...        0 min,  0.003 sec
 * total energy  :   -31.5548929 Eh     change       -0.6517693E-04 Eh
   gradient norm :     0.0017892 Eh/α   predicted    -0.4444783E-04 ( -31.80%)
   displ. norm   :     0.1674646 α      lambda       -0.7649808E-04
   maximum displ.:     0.1062504 α      in ANC's #2, #4, #9, ...

........................................................................
.............................. CYCLE   23 ..............................
........................................................................

 iter      E             dE          RMSdq      gap      omega  full diag
   1    -32.0764697 -0.320765E+02  0.556E-02    3.67       0.0  T
   2    -32.0764703 -0.595488E-06  0.321E-02    3.67       1.0  T
   3    -32.0764703  0.704338E-07  0.424E-03    3.67       4.6  T
   4    -32.0764704 -0.139936E-06  0.156E-03    3.67      12.6  T
   5    -32.0764704 -0.262534E-07  0.655E-04    3.67      29.9  T
   6    -32.0764704 -0.317485E-08  0.249E-04    3.67      78.6  T
   7    -32.0764704 -0.113694E-09  0.116E-04    3.67     169.2  T
   8    -32.0764704 -0.868638E-10  0.268E-05    3.67     730.5  T
   9    -32.0764704 -0.684963E-11  0.135E-05    3.67    1455.9  T
  10    -32.0764704 -0.159872E-11  0.405E-06    3.67    4845.5  T
  11    -32.0764704 -0.639488E-13  0.230E-06    3.67    8543.8  T
     SCC iter.                  ...        0 min,  0.104 sec
     gradient                   ...        0 min,  0.007 sec
 * total energy  :   -31.5549634 Eh     change       -0.7046941E-04 Eh
   gradient norm :     0.0042518 Eh/α   predicted    -0.3873449E-04 ( -45.03%)
   displ. norm   :     0.1052309 α      lambda       -0.5391798E-04
   maximum displ.:     0.0628624 α      in ANC's #2, #4, #5, ...

........................................................................
.............................. CYCLE   24 ..............................
........................................................................

 iter      E             dE          RMSdq      gap      omega  full diag
   1    -32.0762898 -0.320763E+02  0.333E-02    3.66       0.0  T
   2    -32.0762900 -0.111450E-06  0.194E-02    3.66       1.0  T
   3    -32.0762899  0.722186E-08  0.203E-03    3.66       9.6  T
   4    -32.0762900 -0.242178E-07  0.625E-04    3.66      31.4  T
   5    -32.0762900 -0.244157E-08  0.283E-04    3.66      69.3  T
   6    -32.0762900 -0.138984E-08  0.123E-04    3.66     159.3  T
   7    -32.0762900 -0.597140E-10  0.415E-05    3.66     472.5  T
   8    -32.0762900 -0.184954E-10  0.161E-05    3.66    1217.4  T
   9    -32.0762900 -0.217426E-11  0.482E-06    3.66    4067.1  T
  10    -32.0762900 -0.113687E-12  0.217E-06    3.66    9042.6  T
     SCC iter.                  ...        0 min,  0.148 sec
     gradient                   ...        0 min,  0.002 sec
 * total energy  :   -31.5550131 Eh     change       -0.4967761E-04 Eh
   gradient norm :     0.0043614 Eh/α   predicted    -0.2725968E-04 ( -45.13%)
   displ. norm   :     0.3090251 α      lambda       -0.1581940E-03
   maximum displ.:     0.1755370 α      in ANC's #2, #4, #1, ...

........................................................................
.............................. CYCLE   25 ..............................
........................................................................

 iter      E             dE          RMSdq      gap      omega  full diag
   1    -32.0748888 -0.320749E+02  0.967E-02    3.66       0.0  T
   2    -32.0748895 -0.713425E-06  0.568E-02    3.66       1.0  T
   3    -32.0748893  0.160874E-06  0.530E-03    3.66       3.7  T
   4    -32.0748896 -0.298656E-06  0.181E-03    3.66      10.8  T
   5    -32.0748896 -0.287615E-07  0.872E-04    3.66      22.5  T
   6    -32.0748897 -0.107829E-07  0.312E-04    3.66      62.9  T
   7    -32.0748897 -0.431427E-09  0.136E-04    3.66     143.9  T
   8    -32.0748897 -0.215579E-09  0.501E-05    3.66     391.4  T
   9    -32.0748897 -0.121503E-10  0.183E-05    3.66    1073.2  T
  10    -32.0748897 -0.660805E-12  0.488E-06    3.66    4020.6  T
  11    -32.0748897 -0.213163E-12  0.182E-06    3.66   10779.0  T
     SCC iter.                  ...        0 min,  0.098 sec
     gradient                   ...        0 min,  0.005 sec
 * total energy  :   -31.5551333 Eh     change       -0.1201783E-03 Eh
   gradient norm :     0.0037142 Eh/α   predicted    -0.8666152E-04 ( -27.89%)
   displ. norm   :     0.3080773 α      lambda       -0.1042247E-03
   maximum displ.:     0.1769784 α      in ANC's #2, #4, #1, ...

........................................................................
.............................. CYCLE   26 ..............................
........................................................................

 iter      E             dE          RMSdq      gap      omega  full diag
   1    -32.0738157 -0.320738E+02  0.980E-02    3.65       0.0  T
   2    -32.0738163 -0.574172E-06  0.575E-02    3.65       1.0  T
   3    -32.0738159  0.366759E-06  0.610E-03    3.65       3.2  T
   4    -32.0738165 -0.513387E-06  0.176E-03    3.65      11.1  T
   5    -32.0738165 -0.289430E-07  0.857E-04    3.65      22.9  T
   6    -32.0738165 -0.114919E-07  0.315E-04    3.65      62.2  T
   7    -32.0738165 -0.346496E-09  0.130E-04    3.65     150.8  T
   8    -32.0738165 -0.194447E-09  0.450E-05    3.65     435.4  T
   9    -32.0738165 -0.783018E-11  0.153E-05    3.65    1279.7  T
  10    -32.0738165 -0.767386E-12  0.400E-06    3.65    4903.6  T
  11    -32.0738165 -0.191847E-12  0.149E-06    3.65   13187.5  T
     SCC iter.                  ...        0 min,  0.087 sec
     gradient                   ...        0 min,  0.002 sec
 * total energy  :   -31.5552013 Eh     change       -0.6807655E-04 Eh
   gradient norm :     0.0041089 Eh/α   predicted    -0.5705913E-04 ( -16.18%)
   displ. norm   :     0.3043650 α      lambda        0.2168589E-04
   maximum displ.:     0.1748064 α      in ANC's #2, #4, #1, ...

........................................................................
.............................. CYCLE   27 ..............................
........................................................................

 iter      E             dE          RMSdq      gap      omega  full diag
   1    -32.0709696 -0.320710E+02  0.974E-02    3.63       0.0  T
   2    -32.0709705 -0.860032E-06  0.571E-02    3.63       1.0  T
   3    -32.0709701  0.381038E-06  0.686E-03    3.63       2.9  T
   4    -32.0709706 -0.558978E-06  0.179E-03    3.63      11.0  T
   5    -32.0709707 -0.198817E-07  0.108E-03    3.63      18.1  T
   6    -32.0709707 -0.166028E-07  0.333E-04    3.63      58.9  T
   7    -32.0709707 -0.571134E-09  0.155E-04    3.63     126.7  T
   8    -32.0709707 -0.191164E-09  0.559E-05    3.63     350.6  T
   9    -32.0709707 -0.116316E-10  0.217E-05    3.63     903.7  T
  10    -32.0709707 -0.155609E-11  0.495E-06    3.63    3959.7  T
  11    -32.0709707 -0.468958E-12  0.145E-06    3.63   13565.3  T
     SCC iter.                  ...        0 min,  0.076 sec
     gradient                   ...        0 min,  0.002 sec
 * total energy  :   -31.5551720 Eh     change        0.2938429E-04 Eh
   gradient norm :     0.0077981 Eh/α   predicted     0.1184204E-04 ( -59.70%)
   displ. norm   :     0.1044259 α      lambda       -0.1405456E-03
   maximum displ.:     0.0578323 α      in ANC's #4, #2, #5, ...

........................................................................
.............................. CYCLE   28 ..............................
........................................................................

 iter      E             dE          RMSdq      gap      omega  full diag
   1    -32.0750348 -0.320750E+02  0.371E-02    3.64       0.0  T
   2    -32.0750360 -0.121676E-05  0.209E-02    3.64       1.0  T
   3    -32.0750360 -0.161438E-07  0.606E-03    3.64       3.2  T
   4    -32.0750361 -0.764829E-07  0.126E-03    3.64      15.6  T
   5    -32.0750361 -0.329143E-08  0.821E-04    3.64      23.9  T
   6    -32.0750361 -0.211237E-08  0.238E-04    3.64      82.4  T
   7    -32.0750361 -0.651958E-09  0.106E-04    3.64     184.5  T
   8    -32.0750361 -0.745928E-10  0.433E-05    3.64     452.7  T
   9    -32.0750361 -0.113900E-10  0.125E-05    3.64    1568.3  T
  10    -32.0750361 -0.433431E-12  0.470E-06    3.64    4172.1  T
  11    -32.0750361 -0.227374E-12  0.170E-06    3.64   11527.1  T
     SCC iter.                  ...        0 min,  0.075 sec
     gradient                   ...        0 min,  0.002 sec
 * total energy  :   -31.5552535 Eh     change       -0.8158833E-04 Eh
   gradient norm :     0.0025409 Eh/α   predicted    -0.7104101E-04 ( -12.93%)
   displ. norm   :     0.0888975 α      lambda       -0.3711673E-04
   maximum displ.:     0.0467939 α      in ANC's #2, #1, #3, ...

........................................................................
.............................. CYCLE   29 ..............................
........................................................................

 iter      E             dE          RMSdq      gap      omega  full diag
   1    -32.0763178 -0.320763E+02  0.313E-02    3.65       0.0  T
   2    -32.0763180 -0.201837E-06  0.180E-02    3.65       1.1  T
   3    -32.0763180  0.266754E-07  0.276E-03    3.65       7.1  T
   4    -32.0763181 -0.501290E-07  0.862E-04    3.65      22.7  T
   5    -32.0763181 -0.553683E-08  0.285E-04    3.65      68.8  T
   6    -32.0763181 -0.828322E-09  0.177E-04    3.65     110.9  T
   7    -32.0763181 -0.270333E-09  0.560E-05    3.65     350.1  T
   8    -32.0763181 -0.103668E-10  0.166E-05    3.65    1180.5  T
   9    -32.0763181 -0.361666E-11  0.803E-06    3.65    2441.7  T
  10    -32.0763181 -0.355271E-12  0.277E-06    3.65    7069.7  T
     SCC iter.                  ...        0 min,  0.075 sec
     gradient                   ...        0 min,  0.002 sec
 * total energy  :   -31.5552832 Eh     change       -0.2970323E-04 Eh
   gradient norm :     0.0014304 Eh/α   predicted    -0.1870585E-04 ( -37.02%)
   displ. norm   :     0.3789980 α      lambda       -0.6000914E-04
   maximum displ.:     0.1979744 α      in ANC's #2, #1, #3, ...

........................................................................
.............................. CYCLE   30 ..............................
........................................................................

 iter      E             dE          RMSdq      gap      omega  full diag
   1    -32.0772979 -0.320773E+02  0.123E-01    3.65       0.0  T
   2    -32.0772992 -0.127884E-05  0.722E-02    3.65       1.0  T
   3    -32.0772989  0.292044E-06  0.689E-03    3.65       2.8  T
   4    -32.0772994 -0.507936E-06  0.248E-03    3.65       7.9  T
   5    -32.0772995 -0.629666E-07  0.942E-04    3.65      20.8  T
   6    -32.0772995 -0.112129E-07  0.486E-04    3.65      40.3  T
   7    -32.0772995 -0.124615E-08  0.123E-04    3.65     159.2  T
   8    -32.0772995 -0.469171E-10  0.468E-05    3.65     418.9  T
   9    -32.0772995 -0.280238E-10  0.179E-05    3.65    1097.6  T
  10    -32.0772995 -0.980549E-12  0.388E-06    3.65    5051.2  T
  11    -32.0772995 -0.355271E-13  0.149E-06    3.65   13127.5  T
     SCC iter.                  ...        0 min,  0.075 sec
     gradient                   ...        0 min,  0.002 sec
 * total energy  :   -31.5553422 Eh     change       -0.5899268E-04 Eh
   gradient norm :     0.0042685 Eh/α   predicted    -0.3193809E-04 ( -45.86%)
   displ. norm   :     0.2087897 α      lambda       -0.4757964E-04
   maximum displ.:     0.1167793 α      in ANC's #1, #2, #3, ...

........................................................................
.............................. CYCLE   31 ..............................
........................................................................

 iter      E             dE          RMSdq      gap      omega  full diag
   1    -32.0770399 -0.320770E+02  0.692E-02    3.65       0.0  T
   2    -32.0770402 -0.320293E-06  0.407E-02    3.65       1.0  T
   3    -32.0770401  0.118415E-06  0.435E-03    3.65       4.5  T
   4    -32.0770403 -0.187458E-06  0.112E-03    3.65      17.5  T
   5    -32.0770403 -0.841030E-08  0.616E-04    3.65      31.8  T
   6    -32.0770403 -0.645954E-08  0.255E-04    3.65      77.0  T
   7    -32.0770403 -0.249571E-09  0.711E-05    3.65     275.7  T
   8    -32.0770403 -0.313065E-10  0.272E-05    3.65     720.6  T
   9    -32.0770403 -0.649436E-11  0.110E-05    3.65    1778.1  T
  10    -32.0770403 -0.305533E-12  0.195E-06    3.65   10039.7  T
  11    -32.0770403 -0.710543E-13  0.802E-07    3.65   24455.5  T
     SCC iter.                  ...        0 min,  0.075 sec
     gradient                   ...        0 min,  0.002 sec
 * total energy  :   -31.5553851 Eh     change       -0.4286702E-04 Eh
   gradient norm :     0.0037422 Eh/α   predicted    -0.2485930E-04 ( -42.01%)
   displ. norm   :     0.3287159 α      lambda       -0.9923198E-04
   maximum displ.:     0.1983172 α      in ANC's #1, #3, #2, ...

........................................................................
.............................. CYCLE   32 ..............................
........................................................................

 iter      E             dE          RMSdq      gap      omega  full diag
   1    -32.0768392 -0.320768E+02  0.109E-01    3.64       0.0  T
   2    -32.0768401 -0.862569E-06  0.638E-02    3.64       1.0  T
   3    -32.0768399  0.247380E-06  0.729E-03    3.64       2.7  T
   4    -32.0768403 -0.425208E-06  0.171E-03    3.64      11.4  T
   5    -32.0768403 -0.765112E-08  0.109E-03    3.64      18.1  T
   6    -32.0768403 -0.175697E-07  0.415E-04    3.64      47.3  T
   7    -32.0768403 -0.867409E-09  0.107E-04    3.64     184.1  T
   8    -32.0768403 -0.396767E-10  0.422E-05    3.64     464.7  T
   9    -32.0768403 -0.144595E-10  0.182E-05    3.64    1074.6  T
  10    -32.0768403 -0.838440E-12  0.450E-06    3.64    4362.9  T
  11    -32.0768403 -0.639488E-13  0.143E-06    3.64   13680.7  T
     SCC iter.                  ...        0 min,  0.082 sec
     gradient                   ...        0 min,  0.002 sec
 * total energy  :   -31.5554729 Eh     change       -0.8780049E-04 Eh
   gradient norm :     0.0022602 Eh/α   predicted    -0.5497641E-04 ( -37.38%)
   displ. norm   :     0.5998153 α      lambda       -0.1714041E-03
   maximum displ.:     0.3639193 α      in ANC's #1, #3, #2, ...

........................................................................
.............................. CYCLE   33 ..............................
........................................................................

 iter      E             dE          RMSdq      gap      omega  full diag
   1    -32.0732815 -0.320733E+02  0.194E-01    3.63       0.0  T
   2    -32.0732846 -0.305106E-05  0.114E-01    3.63       1.0  T
   3    -32.0732839  0.640899E-06  0.124E-02    3.63       1.6  T
   4    -32.0732851 -0.122388E-05  0.299E-03    3.63       6.6  T
   5    -32.0732852 -0.284211E-07  0.189E-03    3.63      10.4  T
   6    -32.0732852 -0.508838E-07  0.727E-04    3.63      27.0  T
   7    -32.0732852 -0.315750E-08  0.242E-04    3.63      81.1  T
   8    -32.0732852 -0.148432E-10  0.840E-05    3.63     233.3  T
   9    -32.0732852 -0.656613E-10  0.349E-05    3.63     561.3  T
  10    -32.0732852 -0.271427E-11  0.705E-06    3.63    2781.9  T
  11    -32.0732852 -0.653699E-12  0.239E-06    3.63    8217.9  T
     SCC iter.                  ...        0 min,  0.076 sec
     gradient                   ...        0 min,  0.002 sec
 * total energy  :   -31.5555926 Eh     change       -0.1196867E-03 Eh
   gradient norm :     0.0052779 Eh/α   predicted    -0.1165241E-03 (  -2.64%)
   displ. norm   :     0.4468143 α      lambda       -0.2572883E-03
   maximum displ.:     0.2843051 α      in ANC's #1, #3, #4, ...

........................................................................
.............................. CYCLE   34 ..............................
........................................................................

 iter      E             dE          RMSdq      gap      omega  full diag
   1    -32.0742897 -0.320743E+02  0.140E-01    3.63       0.0  T
   2    -32.0742940 -0.432578E-05  0.818E-02    3.63       1.0  T
   3    -32.0742936  0.395979E-06  0.150E-02    3.63       1.3  T
   4    -32.0742945 -0.917109E-06  0.298E-03    3.63       6.6  T
   5    -32.0742945 -0.294011E-08  0.213E-03    3.63       9.2  T
   6    -32.0742945 -0.201214E-07  0.688E-04    3.63      28.5  T
   7    -32.0742945 -0.392573E-08  0.179E-04    3.63     109.3  T
   8    -32.0742945 -0.165983E-09  0.582E-05    3.63     336.8  T
   9    -32.0742945 -0.203642E-10  0.327E-05    3.63     599.0  T
  10    -32.0742945 -0.252953E-11  0.798E-06    3.63    2458.1  T
  11    -32.0742945 -0.738964E-12  0.286E-06    3.63    6862.2  T
     SCC iter.                  ...        0 min,  0.075 sec
     gradient                   ...        0 min,  0.002 sec
 * total energy  :   -31.5556995 Eh     change       -0.1069441E-03 Eh
   gradient norm :     0.0073315 Eh/α   predicted    -0.1543177E-03 (  44.30%)
   displ. norm   :     0.2379993 α      lambda       -0.1148485E-03
   maximum displ.:     0.1465998 α      in ANC's #3, #1, #2, ...

........................................................................
.............................. CYCLE   35 ..............................
........................................................................

 iter      E             dE          RMSdq      gap      omega  full diag
   1    -32.0726062 -0.320726E+02  0.753E-02    3.62       0.0  T
   2    -32.0726071 -0.964672E-06  0.436E-02    3.62       1.0  T
   3    -32.0726071  0.274829E-07  0.556E-03    3.62       3.5  T
   4    -32.0726073 -0.142776E-06  0.166E-03    3.62      11.8  T
   5    -32.0726073 -0.372220E-08  0.108E-03    3.62      18.2  T
   6    -32.0726073 -0.151175E-07  0.364E-04    3.62      53.8  T
   7    -32.0726073 -0.544553E-09  0.127E-04    3.62     154.2  T
   8    -32.0726073 -0.203535E-09  0.375E-05    3.62     523.3  T
   9    -32.0726073 -0.420641E-11  0.168E-05    3.62    1169.6  T
  10    -32.0726073 -0.171241E-11  0.396E-06    3.62    4954.6  T
  11    -32.0726073 -0.120792E-12  0.166E-06    3.62   11845.6  T
     SCC iter.                  ...        0 min,  0.075 sec
     gradient                   ...        0 min,  0.002 sec
 * total energy  :   -31.5557671 Eh     change       -0.6754098E-04 Eh
   gradient norm :     0.0061994 Eh/α   predicted    -0.6067863E-04 ( -10.16%)
   displ. norm   :     0.1335886 α      lambda       -0.2101656E-03
   maximum displ.:     0.0773152 α      in ANC's #1, #9, #2, ...

........................................................................
.............................. CYCLE   36 ..............................
........................................................................

 iter      E             dE          RMSdq      gap      omega  full diag
   1    -32.0808516 -0.320809E+02  0.712E-02    3.64       0.0  T
   2    -32.0808563 -0.470065E-05  0.391E-02    3.64       1.0  T
   3    -32.0808561  0.189475E-06  0.159E-02    3.64       1.2  T
   4    -32.0808568 -0.660232E-06  0.316E-03    3.64       6.2  T
   5    -32.0808568 -0.229882E-08  0.234E-03    3.64       8.4  T
   6    -32.0808568 -0.288861E-07  0.771E-04    3.64      25.4  T
   7    -32.0808568 -0.524212E-08  0.194E-04    3.64     100.9  T
   8    -32.0808568 -0.125752E-09  0.815E-05    3.64     240.6  T
   9    -32.0808568 -0.533475E-10  0.285E-05    3.64     688.4  T
  10    -32.0808568 -0.625278E-12  0.987E-06    3.64    1987.2  T
  11    -32.0808568 -0.206768E-11  0.320E-06    3.64    6125.5  T
     SCC iter.                  ...        0 min,  0.075 sec
     gradient                   ...        0 min,  0.002 sec
 * total energy  :   -31.5557252 Eh     change        0.4183694E-04 Eh
   gradient norm :     0.0074257 Eh/α   predicted    -0.1069592E-03 (-355.66%)
   displ. norm   :     0.2215213 α      lambda       -0.2237356E-03
   maximum displ.:     0.1440782 α      in ANC's #1, #3, #6, ...

........................................................................
.............................. CYCLE   37 ..............................
........................................................................

 iter      E             dE          RMSdq      gap      omega  full diag
   1    -32.0766085 -0.320766E+02  0.798E-02    3.64       0.0  T
   2    -32.0766109 -0.235104E-05  0.457E-02    3.64       1.0  T
   3    -32.0766105  0.408387E-06  0.131E-02    3.64       1.5  T
   4    -32.0766112 -0.732257E-06  0.244E-03    3.64       8.0  T
   5    -32.0766112  0.376239E-08  0.181E-03    3.64      10.8  T
   6    -32.0766112 -0.137357E-07  0.611E-04    3.64      32.1  T
   7    -32.0766112 -0.398466E-08  0.155E-04    3.64     126.3  T
   8    -32.0766112  0.920153E-11  0.566E-05    3.64     346.3  T
   9    -32.0766112 -0.399680E-10  0.181E-05    3.64    1084.9  T
  10    -32.0766112 -0.504485E-12  0.575E-06    3.64    3408.1  T
  11    -32.0766112 -0.717648E-12  0.205E-06    3.64    9580.3  T
     SCC iter.                  ...        0 min,  0.076 sec
     gradient                   ...        0 min,  0.002 sec
 * total energy  :   -31.5558546 Eh     change       -0.1293343E-03 Eh
   gradient norm :     0.0020400 Eh/α   predicted    -0.1173568E-03 (  -9.26%)
   displ. norm   :     0.2095722 α      lambda       -0.3729183E-04
   maximum displ.:     0.1439960 α      in ANC's #3, #1, #6, ...

........................................................................
.............................. CYCLE   38 ..............................
........................................................................

 iter      E             dE          RMSdq      gap      omega  full diag
   1    -32.0751948 -0.320752E+02  0.641E-02    3.63       0.0  T
   2    -32.0751952 -0.402573E-06  0.376E-02    3.63       1.0  T
   3    -32.0751951  0.636133E-07  0.445E-03    3.63       4.4  T
   4    -32.0751953 -0.132674E-06  0.115E-03    3.63      17.0  T
   5    -32.0751953 -0.491242E-08  0.661E-04    3.63      29.7  T
   6    -32.0751953 -0.597924E-08  0.262E-04    3.63      74.9  T
   7    -32.0751953 -0.413223E-09  0.852E-05    3.63     230.3  T
   8    -32.0751953 -0.135500E-10  0.253E-05    3.63     776.4  T
   9    -32.0751953 -0.430589E-11  0.116E-05    3.63    1690.7  T
  10    -32.0751953 -0.383693E-12  0.291E-06    3.63    6738.4  T
  11    -32.0751953 -0.127898E-12  0.114E-06    3.63   17236.8  T
     SCC iter.                  ...        0 min,  0.075 sec
     gradient                   ...        0 min,  0.002 sec
 * total energy  :   -31.5558774 Eh     change       -0.2279413E-04 Eh
   gradient norm :     0.0027981 Eh/α   predicted    -0.1946726E-04 ( -14.60%)
   displ. norm   :     0.1131233 α      lambda       -0.2414662E-04
   maximum displ.:     0.0816281 α      in ANC's #3, #1, #8, ...

........................................................................
.............................. CYCLE   39 ..............................
........................................................................

 iter      E             dE          RMSdq      gap      omega  full diag
   1    -32.0758150 -0.320758E+02  0.336E-02    3.63       0.0  T
   2    -32.0758152 -0.159503E-06  0.196E-02    3.63       1.0  T
   3    -32.0758152  0.106832E-07  0.264E-03    3.63       7.4  T
   4    -32.0758152 -0.351606E-07  0.657E-04    3.63      29.9  T
   5    -32.0758152 -0.146182E-08  0.294E-04    3.63      66.8  T
   6    -32.0758152 -0.319346E-09  0.127E-04    3.63     155.0  T
   7    -32.0758152 -0.635580E-10  0.428E-05    3.63     458.7  T
   8    -32.0758152 -0.238032E-10  0.913E-06    3.63    2148.4  T
   9    -32.0758152 -0.227374E-12  0.495E-06    3.63    3962.2  T
     SCC iter.                  ...        0 min,  0.086 sec
     gradient                   ...        0 min,  0.002 sec
 * total energy  :   -31.5558954 Eh     change       -0.1799967E-04 Eh
   gradient norm :     0.0018178 Eh/α   predicted    -0.1222917E-04 ( -32.06%)
   displ. norm   :     0.1807505 α      lambda       -0.2049548E-04
   maximum displ.:     0.1381556 α      in ANC's #3, #1, #8, ...

........................................................................
.............................. CYCLE   40 ..............................
........................................................................

 iter      E             dE          RMSdq      gap      omega  full diag
   1    -32.0773619 -0.320774E+02  0.529E-02    3.64       0.0  T
   2    -32.0773623 -0.360672E-06  0.309E-02    3.64       1.0  T
   3    -32.0773623 -0.244412E-08  0.295E-03    3.64       6.6  T
   4    -32.0773623 -0.506055E-07  0.114E-03    3.64      17.2  T
   5    -32.0773623 -0.666791E-08  0.434E-04    3.64      45.1  T
   6    -32.0773624 -0.959602E-09  0.207E-04    3.64      94.7  T
   7    -32.0773624 -0.441347E-09  0.724E-05    3.64     271.0  T
   8    -32.0773624 -0.195186E-10  0.165E-05    3.64    1189.2  T
   9    -32.0773624 -0.144240E-11  0.745E-06    3.64    2632.6  T
  10    -32.0773624 -0.717648E-12  0.191E-06    3.64   10255.7  T
     SCC iter.                  ...        0 min,  0.075 sec
     gradient                   ...        0 min,  0.002 sec
 * total energy  :   -31.5559087 Eh     change       -0.1332738E-04 Eh
   gradient norm :     0.0012852 Eh/α   predicted    -0.1039804E-04 ( -21.98%)
   displ. norm   :     0.0455931 α      lambda       -0.4243155E-05
   maximum displ.:     0.0301524 α      in ANC's #3, #1, #2, ...

........................................................................
.............................. CYCLE   41 ..............................
........................................................................

 iter      E             dE          RMSdq      gap      omega  full diag
   1    -32.0770243 -0.320770E+02  0.149E-02    3.64       0.0  T
   2    -32.0770243 -0.460637E-07  0.877E-03    3.64       2.2  T
   3    -32.0770243  0.783351E-08  0.144E-03    3.64      13.6  T
   4    -32.0770243 -0.140813E-07  0.330E-04    3.64      59.4  T
   5    -32.0770243 -0.321407E-09  0.197E-04    3.64      99.7  T
   6    -32.0770243 -0.328512E-09  0.738E-05    3.64     265.8  T
   7    -32.0770243 -0.391509E-10  0.272E-05    3.64     719.9  T
   8    -32.0770243 -0.294165E-11  0.587E-06    3.64    3338.2  T
   9    -32.0770243 -0.348166E-12  0.370E-06    3.64    5301.0  T
     SCC iter.                  ...        0 min,  0.074 sec
     gradient                   ...        0 min,  0.002 sec
 * total energy  :   -31.5559120 Eh     change       -0.3311963E-05 Eh
   gradient norm :     0.0008705 Eh/α   predicted    -0.2125619E-05 ( -35.82%)
   displ. norm   :     0.0408301 α      lambda       -0.5026818E-05
   maximum displ.:     0.0205342 α      in ANC's #9, #8, #10, ...

........................................................................
.............................. CYCLE   42 ..............................
........................................................................

 iter      E             dE          RMSdq      gap      omega  full diag
   1    -32.0771384 -0.320771E+02  0.103E-02    3.64       0.0  T
   2    -32.0771385 -0.263273E-07  0.592E-03    3.64       3.3  T
   3    -32.0771385  0.764686E-09  0.993E-04    3.64      19.8  T
   4    -32.0771385 -0.251955E-08  0.341E-04    3.64      57.5  T
   5    -32.0771385 -0.219163E-08  0.156E-04    3.64     125.9  T
   6    -32.0771385 -0.330296E-09  0.592E-05    3.64     331.4  T
   7    -32.0771385 -0.500222E-11  0.194E-05    3.64    1009.5  T
   8    -32.0771385 -0.303402E-11  0.611E-06    3.64    3209.0  T
   9    -32.0771385 -0.511591E-12  0.246E-06    3.64    7981.6  T
     SCC iter.                  ...        0 min,  0.075 sec
     gradient                   ...        0 min,  0.002 sec
 * total energy  :   -31.5559164 Eh     change       -0.4401787E-05 Eh
   gradient norm :     0.0009756 Eh/α   predicted    -0.2521702E-05 ( -42.71%)
   displ. norm   :     0.0580481 α      lambda       -0.3887257E-05
   maximum displ.:     0.0323072 α      in ANC's #3, #1, #2, ...
 * RMSD in coord.:     0.7333200 α      energy gain  -0.1187177E-02 Eh

generating ANC from model Hessian ...
Using Lindh-Hessian (1995)
 Shifting diagonal of input Hessian by   9.248920538844558E-003
 Lowest  eigenvalues of input Hessian
    0.000000    0.000000    0.000000    0.000000    0.000000    0.000000
    0.010000    0.010282    0.010771    0.011290    0.012175    0.013031
    0.015059    0.017737    0.018225    0.019595    0.024263    0.024405
 Highest eigenvalues
    1.364324    1.552542    1.576157    1.880541    1.987282    2.005515
 

........................................................................
.............................. CYCLE   43 ..............................
........................................................................

 iter      E             dE          RMSdq      gap      omega  full diag
   1    -32.0768615 -0.320769E+02  0.174E-02    3.64       0.0  T
   2    -32.0768616 -0.673838E-07  0.101E-02    3.64       1.9  T
   3    -32.0768616  0.497517E-08  0.126E-03    3.64      15.5  T
   4    -32.0768616 -0.960275E-08  0.492E-04    3.64      39.9  T
   5    -32.0768616 -0.389994E-08  0.219E-04    3.64      89.6  T
   6    -32.0768616 -0.457796E-09  0.962E-05    3.64     204.0  T
   7    -32.0768616 -0.407496E-10  0.384E-05    3.64     511.4  T
   8    -32.0768616 -0.346034E-11  0.909E-06    3.64    2157.1  T
   9    -32.0768616 -0.554223E-12  0.548E-06    3.64    3577.9  T
     SCC iter.                  ...        0 min,  0.076 sec
     gradient                   ...        0 min,  0.002 sec
 * total energy  :   -31.5559183 Eh     change       -0.1904535E-05 Eh
   gradient norm :     0.0010655 Eh/α   predicted     0.0000000E+00 (-100.00%)
   displ. norm   :     0.0140894 α      lambda       -0.1195539E-05
   maximum displ.:     0.0080845 α      in ANC's #6, #8, #10, ...

........................................................................
.............................. CYCLE   44 ..............................
........................................................................

 iter      E             dE          RMSdq      gap      omega  full diag
   1    -32.0773096 -0.320773E+02  0.677E-03    3.64       0.0  T
   2    -32.0773096 -0.343322E-07  0.373E-03    3.64       5.3  T
   3    -32.0773096 -0.180459E-08  0.937E-04    3.64      20.9  T
   4    -32.0773096 -0.794024E-09  0.266E-04    3.64      73.6  T
   5    -32.0773096 -0.742574E-09  0.117E-04    3.64     167.7  T
   6    -32.0773096 -0.212921E-09  0.579E-05    3.64     338.7  T
   7    -32.0773096 -0.574829E-11  0.217E-05    3.64     904.3  T
   8    -32.0773096 -0.408562E-11  0.543E-06    3.64    3612.9  T
   9    -32.0773096 -0.227374E-12  0.272E-06    3.64    7214.2  T
     SCC iter.                  ...        0 min,  0.075 sec
     gradient                   ...        0 min,  0.002 sec
 * total energy  :   -31.5559210 Eh     change       -0.2717144E-05 Eh
   gradient norm :     0.0002690 Eh/α   predicted    -0.1644938E-05 ( -39.46%)
   displ. norm   :     0.0150563 α      lambda       -0.1121840E-05
   maximum displ.:     0.0076778 α      in ANC's #10, #6, #8, ...

........................................................................
.............................. CYCLE   45 ..............................
........................................................................

 iter      E             dE          RMSdq      gap      omega  full diag
   1    -32.0773214 -0.320773E+02  0.428E-03    3.64       0.0  T
   2    -32.0773214 -0.544695E-08  0.247E-03    3.64       7.9  T
   3    -32.0773214  0.186787E-09  0.391E-04    3.64      50.2  T
   4    -32.0773214 -0.202185E-09  0.184E-04    3.64     106.9  T
   5    -32.0773214 -0.690761E-09  0.497E-05    3.64     394.2  T
   6    -32.0773214 -0.264961E-10  0.299E-05    3.64     656.6  T
   7    -32.0773214 -0.300560E-11  0.711E-06    3.64    2758.9  T
   8    -32.0773214 -0.781597E-13  0.332E-06    3.64    5899.6  T
     SCC iter.                  ...        0 min,  0.076 sec
     gradient                   ...        0 min,  0.002 sec
 * total energy  :   -31.5559223 Eh     change       -0.1263539E-05 Eh
   gradient norm :     0.0003461 Eh/α   predicted    -0.5617560E-06 ( -55.54%)
   displ. norm   :     0.0342765 α      lambda       -0.1797114E-05
   maximum displ.:     0.0163208 α      in ANC's #10, #6, #1, ...

........................................................................
.............................. CYCLE   46 ..............................
........................................................................

 iter      E             dE          RMSdq      gap      omega  full diag
   1    -32.0772415 -0.320772E+02  0.943E-03    3.64       0.0  T
   2    -32.0772415 -0.796451E-08  0.552E-03    3.64       3.6  T
   3    -32.0772415  0.226595E-08  0.594E-04    3.64      33.0  T
   4    -32.0772415 -0.288163E-08  0.280E-04    3.64      70.1  T
   5    -32.0772415 -0.155102E-08  0.757E-05    3.64     259.1  T
   6    -32.0772415 -0.248050E-10  0.395E-05    3.64     496.0  T
   7    -32.0772415 -0.373745E-11  0.138E-05    3.64    1423.9  T
   8    -32.0772415 -0.196820E-11  0.434E-06    3.64    4521.5  T
   9    -32.0772415 -0.383693E-12  0.154E-06    3.64   12707.3  T
     SCC iter.                  ...        0 min,  0.075 sec
     gradient                   ...        0 min,  0.002 sec
 * total energy  :   -31.5559239 Eh     change       -0.1625062E-05 Eh
   gradient norm :     0.0003436 Eh/α   predicted    -0.8991647E-06 ( -44.67%)
   displ. norm   :     0.0254192 α      lambda       -0.9469824E-06
   maximum displ.:     0.0121950 α      in ANC's #1, #10, #5, ...

[...]
         :: total charge               0.000000000000 e     ::
         :::::::::::::::::::::::::::::::::::::::::::::::::::::

           ------------------------------------------------- 
          |                Numerical Hessian                |
           ------------------------------------------------- 
step length          :   0.00500
SCC accuracy         :   0.30000
Hessian scale factor :   1.00000
frozen atoms in %    :   0.00000    0
RMS gradient         :   0.00002
estimated CPU  time      1.10 min
estimated wall time      0.14 min

writing file <hessian>.

 projected vibrational frequencies (cm⁻¹)
eigval :       -0.00     0.00     0.00     0.00     0.00     0.00
eigval :       27.33    70.18    81.43   127.25   129.49   199.72
eigval :      204.23   227.99   261.48   277.18   283.91   356.92
eigval :      363.04   406.40   472.93   585.96   638.35   657.08
eigval :      683.20   704.69   729.43   746.85   791.31   871.09
eigval :      894.43   925.07   931.14   968.62   974.40   998.55
eigval :     1012.40  1021.87  1065.61  1072.93  1085.87  1115.66
eigval :     1123.34  1181.89  1203.33  1225.73  1227.85  1251.11
eigval :     1266.78  1282.33  1316.95  1408.56  1410.71  1421.69
eigval :     1450.88  1455.04  1462.19  1497.31  1501.04  1504.88
eigval :     1508.49  1577.48  1589.08  2939.01  2942.42  2949.39
eigval :     2960.72  3011.43  3013.23  3023.96  3024.84  3034.32
eigval :     3039.01  3058.78  3068.34  3074.77  3087.02  3094.13
           -------------------------------------------------
          |                Property Printout                |
           -------------------------------------------------

    * Orbital Energies and Occupations

         #    Occupation            Energy/Eh            Energy/eV
      -------------------------------------------------------------
         1        2.0000           -0.6587502             -17.9255
       ...           ...                  ...                  ...
        18        2.0000           -0.4770520             -12.9812
        19        2.0000           -0.4740011             -12.8982
        20        2.0000           -0.4690134             -12.7625
        21        2.0000           -0.4616345             -12.5617
        22        2.0000           -0.4527127             -12.3189
        23        2.0000           -0.4451261             -12.1125
        24        2.0000           -0.4393560             -11.9555
        25        2.0000           -0.4246890             -11.5564
        26        2.0000           -0.4143682             -11.2755
        27        2.0000           -0.4078252             -11.0975
        28        2.0000           -0.4028053             -10.9609
        29        2.0000           -0.4006947             -10.9035
        30        2.0000           -0.3635395              -9.8924 (HOMO)
        31                         -0.2298661              -6.2550 (LUMO)
        32                         -0.2215312              -6.0282
        33                         -0.1544809              -4.2036
        34                         -0.1498896              -4.0787
        35                         -0.0933309              -2.5397
        36                          0.0106670               0.2903
        37                          0.0440393               1.1984
        38                          0.1060153               2.8848
        39                          0.1121531               3.0518
        40                          0.1165086               3.1704
        41                          0.1319702               3.5911
       ...                                ...                  ...
        64                          0.7998050              21.7638
      -------------------------------------------------------------
                  HL-Gap            0.1336734 Eh            3.6374 eV
             Fermi-level           -0.2967028 Eh           -8.0737 eV

     #   Z          covCN         q      C6AA      α(0)
     1  15 P        3.019    -0.113   165.364    23.101
     2   6 C        3.748    -0.045    21.450     6.606
     3   1 H        0.925     0.047     2.362     2.403
     4   1 H        0.926     0.041     2.441     2.443
     5   6 C        3.818    -0.097    22.332     6.726
     6   1 H        0.925     0.037     2.488     2.467
     7   1 H        0.925     0.041     2.431     2.438
     8   1 H        0.925     0.032     2.556     2.500
     9   6 C        2.915     0.010    27.791     8.645
    10   6 C        3.021    -0.030    28.727     8.792
    11   6 C        2.961    -0.034    28.833     8.807
    12   6 C        2.918    -0.030    28.754     8.793
    13   6 C        2.919    -0.031    28.767     8.795
    14   6 C        2.920    -0.031    28.777     8.797
    15   1 H        0.925     0.034     2.532     2.489
    16   1 H        0.926     0.033     2.549     2.497
    17   1 H        0.926     0.029     2.604     2.523
    18   1 H        0.926     0.028     2.617     2.530
    19   1 H        0.926     0.028     2.611     2.527
    20   6 C        3.748    -0.044    21.428     6.602
    21   1 H        0.926     0.041     2.439     2.442
    22   1 H        0.926     0.042     2.424     2.435
    23   6 C        3.780    -0.094    22.320     6.730
    24   1 H        0.925     0.038     2.479     2.462
    25   1 H        0.925     0.037     2.483     2.464
    26   1 H        0.925     0.032     2.560     2.502

 Mol. C6AA /au·bohr⁶  :       7601.131806
 Mol. C8AA /au·bohr⁸  :     202606.388489
 Mol. α(0) /au        :        139.517212


Wiberg/Mayer (AO) data.
largest (>0.10) Wiberg bond orders for each atom

 ---------------------------------------------------------------------------
     #   Z sym  total        # sym  WBO       # sym  WBO       # sym  WBO
 ---------------------------------------------------------------------------
     1  15 P    3.378 --     2 C    1.027     9 C    1.019    20 C    1.014
     2   6 C    3.995 --     1 P    1.027     5 C    1.015     4 H    0.956
                             3 H    0.951
     3   1 H    0.998 --     2 C    0.951
     4   1 H    0.998 --     2 C    0.956
     5   6 C    3.996 --     2 C    1.015     8 H    0.985     7 H    0.984
                             6 H    0.984
     6   1 H    0.999 --     5 C    0.984
     7   1 H    0.998 --     5 C    0.984
     8   1 H    0.999 --     5 C    0.985
     9   6 C    3.982 --    11 C    1.402    10 C    1.390     1 P    1.019
                            14 C    0.106
    10   6 C    3.992 --    12 C    1.457     9 C    1.390    15 H    0.962
                            13 C    0.110
    11   6 C    3.993 --    13 C    1.441     9 C    1.402    16 H    0.963
                            12 C    0.107
    12   6 C    3.992 --    10 C    1.457    14 C    1.428    17 H    0.970
                            11 C    0.107
    13   6 C    3.993 --    14 C    1.441    11 C    1.441    18 H    0.970
                            10 C    0.110
    14   6 C    3.991 --    13 C    1.441    12 C    1.428    19 H    0.971
                             9 C    0.106
    15   1 H    0.999 --    10 C    0.962
    16   1 H    0.999 --    11 C    0.963
    17   1 H    0.999 --    12 C    0.970
    18   1 H    0.999 --    13 C    0.970
    19   1 H    0.998 --    14 C    0.971
    20   6 C    3.994 --     1 P    1.014    23 C    1.012    21 H    0.956
                            22 H    0.954
    21   1 H    0.998 --    20 C    0.956
    22   1 H    0.998 --    20 C    0.954
    23   6 C    3.997 --    20 C    1.012    24 H    0.984    26 H    0.983
                            25 H    0.983
    24   1 H    0.999 --    23 C    0.984
    25   1 H    0.999 --    23 C    0.983
    26   1 H    0.999 --    23 C    0.983
 ---------------------------------------------------------------------------

Topologies differ in total number of bonds
Writing topology from bond orders to xtbtopo.mol

molecular dipole:
                 x           y           z       tot (Debye)
 q only:        0.267       0.012      -0.225
   full:        0.620       0.107      -0.208       1.686
molecular quadrupole (traceless):
                xx          xy          yy          xz          yz          zz
 q only:       -0.142      -1.290      -1.083      -2.754       0.478       1.225
  q+dip:        0.500      -3.713      -0.978      -3.142       0.851       0.478
   full:        0.499      -2.481      -1.323      -4.562       0.103       0.824

           -------------------------------------------------
          |                Geometry Summary                 |
           -------------------------------------------------

      molecular mass/u    :      166.2002322
   center of mass at/Å    :        2.3692728       0.0911380      -1.7437709
  moments of inertia/u·Å² :        0.2863730E+03   0.8238135E+03   0.9294737E+03
rotational constants/cm⁻¹ :        0.5886600E-01   0.2046292E-01   0.1813675E-01

 * 24 selected distances

     #   Z          #   Z                                           value/Å
     1  15 P        2   6 C                                       1.8646167 (max)
     2   6 C        3   1 H                                       1.0924662
     2   6 C        4   1 H                                       1.0940374
     2   6 C        5   6 C                                       1.5234154
     5   6 C        6   1 H                                       1.0877640
     5   6 C        7   1 H                                       1.0884981
     5   6 C        8   1 H                                       1.0890292
     9   6 C       10   6 C                                       1.3938428
     9   6 C       11   6 C                                       1.3898125
    10   6 C       12   6 C                                       1.3809697
    11   6 C       13   6 C                                       1.3845423
    12   6 C       14   6 C                                       1.3855954
    13   6 C       14   6 C                                       1.3835643
    10   6 C       15   1 H                                       1.0816476
    11   6 C       16   1 H                                       1.0792834 (min)
    12   6 C       17   1 H                                       1.0806337
    13   6 C       18   1 H                                       1.0808610
    14   6 C       19   1 H                                       1.0801493
    20   6 C       21   1 H                                       1.0934635
    20   6 C       22   1 H                                       1.0934645
    20   6 C       23   6 C                                       1.5222181
    23   6 C       24   1 H                                       1.0872249
    23   6 C       25   1 H                                       1.0887858
    23   6 C       26   1 H                                       1.0891467

 * 3 distinct bonds (by element types)

   Z      Z             #   av. dist./Å        max./Å        min./Å
   1 H    6 C          15     1.0870970     1.0940374     1.0792834
   6 C    6 C           8     1.4204950     1.5234154     1.3809697
   6 C   15 P           1     1.8646167     1.8646167     1.8646167

           -------------------------------------------------
          |               Frequency Printout                |
           -------------------------------------------------
 projected vibrational frequencies (cm⁻¹)
eigval :       -0.00     0.00     0.00     0.00     0.00     0.00
eigval :       27.33    70.18    81.43   127.25   129.49   199.72
eigval :      204.23   227.99   261.48   277.18   283.91   356.92
eigval :      363.04   406.40   472.93   585.96   638.35   657.08
eigval :      683.20   704.69   729.43   746.85   791.31   871.09
eigval :      894.43   925.07   931.14   968.62   974.40   998.55
eigval :     1012.40  1021.87  1065.61  1072.93  1085.87  1115.66
eigval :     1123.34  1181.89  1203.33  1225.73  1227.85  1251.11
eigval :     1266.78  1282.33  1316.95  1408.56  1410.71  1421.69
eigval :     1450.88  1455.04  1462.19  1497.31  1501.04  1504.88
eigval :     1508.49  1577.48  1589.08  2939.01  2942.42  2949.39
eigval :     2960.72  3011.43  3013.23  3023.96  3024.84  3034.32
eigval :     3039.01  3058.78  3068.34  3074.77  3087.02  3094.13
 reduced masses (amu)
   1: 12.69   2: 13.59   3: 13.30   4: 12.20   5: 14.13   6: 11.76   7:  9.91   8:  9.25
   9:  9.55  10:  6.74  11: 10.37  12:  7.70  13:  3.02  14:  9.55  15:  6.39  16:  9.91
  17: 11.26  18: 13.77  19:  9.08  20: 19.02  21: 13.16  22: 11.18  23: 13.86  24: 10.50
  25: 12.57  26: 15.64  27:  4.47  28:  5.44  29:  4.03  30:  3.33  31:  3.58  32:  4.15
  33:  2.98  34: 10.13  35:  3.65  36:  3.15  37:  3.72  38:  3.91  39:  9.50  40:  9.31
  41:  8.37  42:  8.48  43:  4.43  44:  1.30  45:  1.99  46:  3.62  47:  3.30  48:  4.17
  49:  4.15  50:  3.36  51: 11.92  52:  2.93  53:  2.95  54:  8.59  55:  4.57  56:  2.31
  57:  5.28  58:  1.55  59:  1.54  60:  1.54  61:  1.56  62: 11.43  63: 11.44  64:  1.98
  65:  1.97  66:  1.49  67:  1.49  68:  1.87  69:  1.87  70:  1.72  71:  1.87  72:  1.41
  73:  1.55  74:  1.79  75:  1.77  76:  1.84  77:  1.88  78:  1.86
 IR intensities (km·mol⁻¹)
   1:  0.20   2:  0.02   3:  0.06   4:  0.06   5:  0.14   6:  0.04   7:  0.11   8:  0.09
   9:  0.11  10:  0.56  11:  0.09  12:  0.08  13:  0.18  14:  0.10  15:  0.13  16:  0.26
  17:  0.39  18:  0.40  19:  0.03  20:  1.65  21:  4.66  22:  0.04  23: 10.78  24:  3.10
  25:  0.14  26: 25.08  27: 34.79  28: 18.94  29: 19.36  30:  0.24  31:  0.03  32:  0.07
  33:  0.01  34:  2.11  35:  1.50  36:  2.72  37:  1.96  38:  9.21  39: 10.17  40:  7.14
  41:  0.04  42:  1.18  43:  0.13  44:  0.02  45:  0.70  46:  2.20  47:  4.01  48:  3.25
  49:  5.25  50:  0.36  51:  0.41  52:  1.82  53:  1.56  54:  0.75  55:  0.66  56:  1.27
  57:  0.11  58:  4.35  59:  0.74  60:  0.98  61:  1.04  62:  0.59  63:  5.46  64: 22.22
  65: 19.67  66:  9.09  67: 21.13  68: 48.96  69: 51.29  70: 24.45  71: 30.22  72: 24.83
  73: 21.62  74: 14.67  75:  5.55  76: 52.82  77: 77.87  78: 27.00
 Raman intensities (Ä⁴*amu⁻¹)
   1:  0.00   2:  0.00   3:  0.00   4:  0.00   5:  0.00   6:  0.00   7:  0.00   8:  0.00
   9:  0.00  10:  0.00  11:  0.00  12:  0.00  13:  0.00  14:  0.00  15:  0.00  16:  0.00
  17:  0.00  18:  0.00  19:  0.00  20:  0.00  21:  0.00  22:  0.00  23:  0.00  24:  0.00
  25:  0.00  26:  0.00  27:  0.00  28:  0.00  29:  0.00  30:  0.00  31:  0.00  32:  0.00
  33:  0.00  34:  0.00  35:  0.00  36:  0.00  37:  0.00  38:  0.00  39:  0.00  40:  0.00
  41:  0.00  42:  0.00  43:  0.00  44:  0.00  45:  0.00  46:  0.00  47:  0.00  48:  0.00
  49:  0.00  50:  0.00  51:  0.00  52:  0.00  53:  0.00  54:  0.00  55:  0.00  56:  0.00
  57:  0.00  58:  0.00  59:  0.00  60:  0.00  61:  0.00  62:  0.00  63:  0.00  64:  0.00
  65:  0.00  66:  0.00  67:  0.00  68:  0.00  69:  0.00  70:  0.00  71:  0.00  72:  0.00
  73:  0.00  74:  0.00  75:  0.00  76:  0.00  77:  0.00  78:  0.00
 output can be read by thermo (or use thermo option).
 writing <g98.out> molden fake output.
 recommended (thermochemical) frequency scaling factor: 1.0
           -------------------------------------------------
          |             Thermodynamic Functions             |
           -------------------------------------------------

Molecule has no symmetry elements
It seems to be the C1 point group
c1  symmetry found (for desy threshold:  0.10E+00) used in thermo

          ...................................................
          :                      SETUP                      :
          :.................................................:
          :  # frequencies                          72      :
          :  # imaginary freq.                       0      :
          :  linear?                             false      :
          :  only rotor calc.                    false      :
          :  symmetry                               c1      :
          :  rotational number                       1      :
          :  scaling factor                  1.0000000      :
          :  rotor cutoff                   50.0000000 cm⁻¹ :
          :  imag. cutoff                  -20.0000000 cm⁻¹ :
          :.................................................:

    mode    ω/cm⁻¹     T·S(HO)/kcal·mol⁻¹    T·S(FR)/kcal·mol⁻¹   T·S(vib)
   ------------------------------------------------------------------------
       1     27.33    -1.79311 (  8.20%)    -1.23519 ( 91.80%)    -1.28093
       2     70.18    -1.23678 ( 79.52%)    -0.95599 ( 20.48%)    -1.17927
       3     81.43    -1.14970 ( 87.55%)    -0.91198 ( 12.45%)    -1.12011
       4    127.25    -0.89064 ( 97.67%)    -0.77977 (  2.33%)    -0.88806
       5    129.49    -0.88061 ( 97.83%)    -0.77459 (  2.17%)    -0.87831
       6    199.72    -0.63676 ( 99.61%)    -0.64626 (  0.39%)    -0.63680
       7    204.23    -0.62452 ( 99.64%)    -0.63963 (  0.36%)    -0.62457
       8    227.99    -0.56490 ( 99.77%)    -0.60703 (  0.23%)    -0.56500
       9    261.48    -0.49251 ( 99.87%)    -0.56644 (  0.13%)    -0.49261
      10    277.18    -0.46243 ( 99.89%)    -0.54917 (  0.11%)    -0.46253
      11    283.91    -0.45021 ( 99.90%)    -0.54206 (  0.10%)    -0.45029
   ------------------------------------------------------------------------

   temp. (K)  partition function   enthalpy   heat capacity  entropy
                                   cal/mol     cal/K/mol   cal/K/mol   J/K/mol
 298.15  VIB  0.119E+05             6092.764     39.515     37.067
         ROT  0.113E+07              888.752      2.981     30.681
         INT  0.135E+11             6981.516     42.496     67.748
         TR   0.207E+28             1481.254      4.968     41.214
         TOT                        8462.7699    47.4644   108.9617   455.8958

       T/K    H(0)-H(T)+PV         H(T)/Eh          T*S/Eh         G(T)/Eh
   ------------------------------------------------------------------------
    298.15    0.134863E-01    0.232537E+00    0.517712E-01    0.180765E+00
   ------------------------------------------------------------------------

         :::::::::::::::::::::::::::::::::::::::::::::::::::::
         ::                  THERMODYNAMIC                  ::
         :::::::::::::::::::::::::::::::::::::::::::::::::::::
         :: total free energy         -31.375164093000 Eh   ::
         ::.................................................::
         :: total energy              -31.555929510435 Eh   ::
         :: zero point energy           0.219050356119 Eh   ::
         :: G(RRHO) w/o ZPVE           -0.038284938684 Eh   ::
         :: G(RRHO) contrib.            0.180765417435 Eh   ::
         :::::::::::::::::::::::::::::::::::::::::::::::::::::

optimized geometry written to: xtbopt.xyz


           -------------------------------------------------
          | TOTAL ENERGY              -31.555929510435 Eh   |
          | TOTAL ENTHALPY            -31.323392872009 Eh   |
          | TOTAL FREE ENERGY         -31.375164093000 Eh   |
          | GRADIENT NORM               0.000017292864 Eh/α |
          | HOMO-LUMO GAP               3.637438893407 eV   |
           -------------------------------------------------

------------------------------------------------------------------------
 * finished run on 2025/07/14 at 11:28:57.633     
------------------------------------------------------------------------
 total:
 * wall-time:     0 d,  0 h,  0 min,  8.800 sec
 *  cpu-time:     0 d,  0 h,  1 min, 31.514 sec
 * ratio c/w:    10.400 speedup
 SCF:
 * wall-time:     0 d,  0 h,  0 min,  0.086 sec
 *  cpu-time:     0 d,  0 h,  0 min,  1.031 sec
 * ratio c/w:    11.969 speedup
 ANC optimizer:
 * wall-time:     0 d,  0 h,  0 min,  5.540 sec
 *  cpu-time:     0 d,  0 h,  1 min,  5.163 sec
 * ratio c/w:    11.761 speedup
 analytical hessian:
 * wall-time:     0 d,  0 h,  0 min,  3.164 sec
 *  cpu-time:     0 d,  0 h,  0 min, 25.226 sec
 * ratio c/w:     7.973 speedup

