      -----------------------------------------------------------      
     |                   =====================                   |     
     |                           x T B                           |     
     |                   =====================                   |     
     |                         S. Grimme                         |     
     |          Mulliken Center for Theoretical Chemistry        |     
     |                    University of Bonn                     |     
      -----------------------------------------------------------      

   * xtb version 6.7.0 (08769fc) compiled by 'albert@albert-system' on 2024-03-04

   xtb is free software: you can redistribute it and/or modify it under
   the terms of the GNU Lesser General Public License as published by
   the Free Software Foundation, either version 3 of the License, or
   (at your option) any later version.
   
   xtb is distributed in the hope that it will be useful,
   but WITHOUT ANY WARRANTY; without even the implied warranty of
   MERCHANTABILITY or FITNESS FOR A PARTICULAR PURPOSE.  See the
   GNU Lesser General Public License for more details.
   
   Cite this work as:
   * C. Bannwarth, E. Caldeweyher, S. Ehlert, A. Hansen, P. Pracht,
     J. Seibert, S. Spicher, S. Grimme, WIREs Comput. Mol. Sci., 2020, 11,
     e01493. DOI: 10.1002/wcms.1493
   
   for GFN2-xTB:
   * C. Bannwarth, S. Ehlert and S. Grimme., J. Chem. Theory Comput., 2019,
     15, 1652-1671. DOI: 10.1021/acs.jctc.8b01176
   for GFN1-xTB:
   * S. Grimme, C. Bannwarth, P. Shushkov, J. Chem. Theory Comput., 2017,
     13, 1989-2009. DOI: 10.1021/acs.jctc.7b00118
   for GFN0-xTB:
   * P. Pracht, E. Caldeweyher, S. Ehlert, S. Grimme, ChemRxiv, 2019, preprint.
     DOI: 10.26434/chemrxiv.8326202.v1
   for GFN-FF:
   * S. Spicher and S. Grimme, Angew. Chem. Int. Ed., 2020, 59, 15665-15673.
     DOI: 10.1002/anie.202004239
   
   for ALPB and GBSA implicit solvation:
   * S. Ehlert, M. Stahn, S. Spicher, S. Grimme, J. Chem. Theory Comput.,
     2021, 17, 4250-4261. DOI: 10.1021/acs.jctc.1c00471
   
   for ddCOSMO and CPCM-X implicit solvation:
   * M. Stahn, S. Ehlert, S. Grimme, J. Phys. Chem. A,
     2023, XX, XXXX-XXXX. DOI: 10.1021/acs.jpca.3c04382
   
   for DFT-D4:
   * E. Caldeweyher, C. Bannwarth and S. Grimme, J. Chem. Phys., 2017,
     147, 034112. DOI: 10.1063/1.4993215
   * E. Caldeweyher, S. Ehlert, A. Hansen, H. Neugebauer, S. Spicher,
     C. Bannwarth and S. Grimme, J. Chem. Phys., 2019, 150, 154122.
     DOI: 10.1063/1.5090222
   * E. Caldeweyher, J.-M. Mewes, S. Ehlert and S. Grimme, Phys. Chem. Chem. Phys.
     2020, 22, 8499-8512. DOI: 10.1039/D0CP00502A
   
   for sTDA-xTB:
   * S. Grimme and C. Bannwarth, J. Chem. Phys., 2016, 145, 054103.
     DOI: 10.1063/1.4959605
   
   in the mass-spec context:
   * V. Asgeirsson, C. Bauer and S. Grimme, Chem. Sci., 2017, 8, 4879.
     DOI: 10.1039/c7sc00601b
   * J. Koopman and S. Grimme, ACS Omega 2019, 4, 12, 15120-15133.
     DOI: 10.1021/acsomega.9b02011
   
   for metadynamics refer to:
   * S. Grimme, J. Chem. Theory Comput., 2019, 155, 2847-2862
     DOI: 10.1021/acs.jctc.9b00143
   
   for SPH calculations refer to:
   * S. Spicher and S. Grimme, J. Chem. Theory Comput., 2021, 17, 1701-1714
     DOI: 10.1021/acs.jctc.0c01306
   
   for ONIOM refer to:
   * C. Plett, A. Katbashev, S. Ehlert, S. Grimme, M. Bursch,
     Phys. Chem. Chem. Phys., 2023, 25, 17860-17868. DOI: 10.1039/D3CP02178E
   
   for DIPRO refer to:
   * J. Kohn, N. Gildemeister, S. Grimme, D. Fazzi, A. Hansen,
     J. Chem. Phys., 2023, just accepted.
   
   for PTB refer to:
   * S. Grimme, M. Mueller, A. Hansen, J. Chem. Phys., 2023, 158, 124111.
     DOI: 10.1063/5.0137838
   
   with help from (in alphabetical order)
   P. Atkinson, C. Bannwarth, F. Bohle, G. Brandenburg, E. Caldeweyher
   M. Checinski, S. Dohm, S. Ehlert, S. Ehrlich, I. Gerasimov, C. Hölzer
   A. Katbashev, J. Kohn, J. Koopman, C. Lavigne, S. Lehtola, F. März, M. Müller,
   F. Musil, H. Neugebauer, J. Pisarek, C. Plett, P. Pracht, F. Pultar,
   J. Seibert, P. Shushkov, S. Spicher, M. Stahn, M. Steiner, T. Strunk,
   J. Stückrath, T. Rose, and J. Unsleber
   
 * started run on 2025/07/14 at 11:27:14.600     
   ID    Z sym.   atoms
    1   15 P      1
    2    6 C      2, 5, 9-14, 20, 23
    3    1 H      3, 4, 6-8, 15-19, 21, 22, 24-26

           -------------------------------------------------
          |                Calculation Setup                |
           -------------------------------------------------

          program call               : /home/minenky/programs/xtb/xtb-dist/bin/xtb m1_00_PEt2Ph-PBE0-D3-TZ-uniMM_16.xyz --charge 0 --T --ohess extreme --cycles 5000 --acc 0.01 --iterations 5000
          coordinate file            : m1_00_PEt2Ph-PBE0-D3-TZ-uniMM_16.xyz
          omp threads                :                    12

########################################################################
[WARNING] Please study the warnings concerning your input carefully
-1- prog_main_parseArguments: Unknown option '--T' provided
########################################################################

           -------------------------------------------------
          |                 G F N 2 - x T B                 |
           -------------------------------------------------

        Reference                      10.1021/acs.jctc.8b01176
      * Hamiltonian:
        H0-scaling (s, p, d)           1.850000    2.230000    2.230000
        zeta-weighting                 0.500000
      * Dispersion:
        s8                             2.700000
        a1                             0.520000
        a2                             5.000000
        s9                             5.000000
      * Repulsion:
        kExp                           1.500000    1.000000
        rExp                           1.000000
      * Coulomb:
        alpha                          2.000000
        third order                    shell-resolved
        anisotropic                    true
        a3                             3.000000
        a5                             4.000000
        cn-shift                       1.200000
        cn-exp                         4.000000
        max-rad                        5.000000


          ...................................................
          :                      SETUP                      :
          :.................................................:
          :  # basis functions                  65          :
          :  # atomic orbitals                  64          :
          :  # shells                           38          :
          :  # electrons                        60          :
          :  max. iterations                  5000          :
          :  Hamiltonian                  GFN2-xTB          :
          :  restarted?                      false          :
          :  GBSA solvation                  false          :
          :  PC potential                    false          :
          :  electronic temp.          300.0000000     K    :
          :  accuracy                    0.0100000          :
          :  -> integral cutoff          0.4500000E+02      :
          :  -> integral neglect         0.1000000E-09      :
          :  -> SCF convergence          0.1000000E-07 Eh   :
          :  -> wf. convergence          0.1000000E-05 e    :
          :  Broyden damping             0.4000000          :
          :  net charge                          0          :
          :  unpaired electrons                  0          :
          ...................................................

 iter      E             dE          RMSdq      gap      omega  full diag
   1    -32.0152613 -0.320153E+02  0.360E+00    3.99       0.0  T
   2    -32.0605124 -0.452511E-01  0.211E+00    3.53       1.0  T
   3    -32.0602297  0.282733E-03  0.881E-01    3.25       1.0  T
   4    -32.0612854 -0.105569E-02  0.286E-01    3.28       1.0  T
   5    -32.0627971 -0.151174E-02  0.115E-01    3.32       1.0  T
   6    -32.0629945 -0.197381E-03  0.444E-02    3.31       1.0  T
   7    -32.0630087 -0.142575E-04  0.165E-02    3.32       1.2  T
   8    -32.0630101 -0.131874E-05  0.661E-03    3.32       3.0  T
   9    -32.0630105 -0.391923E-06  0.148E-03    3.32      13.2  T
  10    -32.0630105 -0.309635E-07  0.598E-04    3.32      32.8  T
  11    -32.0630105 -0.483467E-09  0.271E-04    3.32      72.3  T
  12    -32.0630105 -0.519421E-09  0.594E-05    3.32     330.3  T
  13    -32.0630105 -0.126832E-10  0.304E-05    3.32     644.6  T
  14    -32.0630105 -0.321165E-11  0.106E-05    3.32    1850.9  T
  15    -32.0630105 -0.135003E-12  0.415E-06    3.32    4720.7  T
  16    -32.0630105 -0.312639E-12  0.193E-06    3.32   10186.4  T

   *** convergence criteria satisfied after 16 iterations ***

         #    Occupation            Energy/Eh            Energy/eV
      -------------------------------------------------------------
         1        2.0000           -0.6591511             -17.9364
       ...           ...                  ...                  ...
        24        2.0000           -0.4365828             -11.8800
        25        2.0000           -0.4250952             -11.5674
        26        2.0000           -0.4180143             -11.3747
        27        2.0000           -0.4077300             -11.0949
        28        2.0000           -0.4038965             -10.9906
        29        2.0000           -0.4013269             -10.9207
        30        2.0000           -0.3556388              -9.6774 (HOMO)
        31                         -0.2337252              -6.3600 (LUMO)
        32                         -0.2239748              -6.0947
        33                         -0.1488700              -4.0510
        34                         -0.1398793              -3.8063
        35                         -0.0931622              -2.5351
       ...                                ...                  ...
        64                          0.7974857              21.7007
      -------------------------------------------------------------
                  HL-Gap            0.1219136 Eh            3.3174 eV
             Fermi-level           -0.2946820 Eh           -8.0187 eV

 SCC (total)                   0 d,  0 h,  0 min,  0.088 sec
 SCC setup                      ...        0 min,  0.000 sec (  0.140%)
 Dispersion                     ...        0 min,  0.000 sec (  0.138%)
 classical contributions        ...        0 min,  0.000 sec (  0.011%)
 integral evaluation            ...        0 min,  0.002 sec (  2.149%)
 iterations                     ...        0 min,  0.084 sec ( 95.209%)
 molecular gradient             ...        0 min,  0.002 sec (  2.242%)
 printout                       ...        0 min,  0.000 sec (  0.091%)

         :::::::::::::::::::::::::::::::::::::::::::::::::::::
         ::                     SUMMARY                     ::
         :::::::::::::::::::::::::::::::::::::::::::::::::::::
         :: total energy             -31.548311434539 Eh    ::
         :: gradient norm              0.040360664785 Eh/a0 ::
         :: HOMO-LUMO gap              3.317438232201 eV    ::
         ::.................................................::
         :: SCC energy               -32.062900249698 Eh    ::
         :: -> isotropic ES            0.004122412778 Eh    ::
         :: -> anisotropic ES          0.006070384141 Eh    ::
         :: -> anisotropic XC          0.022030513522 Eh    ::
         :: -> dispersion             -0.022977414067 Eh    ::
         :: repulsion energy           0.514588815159 Eh    ::
         :: add. restraining           0.000000000000 Eh    ::
         :: total charge              -0.000000000000 e     ::
         :::::::::::::::::::::::::::::::::::::::::::::::::::::

      ----------------------------------------------------------- 
     |                   =====================                   |
     |                        A N C O P T                        |
     |                   =====================                   |
     |               Approximate Normal Coordinate               |
     |                Rational Function Optimizer                |
      ----------------------------------------------------------- 
      ----------------------------------------------------------- 
     |                   =====================                   |
     |                        A N C O P T                        |
     |                   =====================                   |
     |               Approximate Normal Coordinate               |
     |                Rational Function Optimizer                |
      ----------------------------------------------------------- 

          ...................................................
          :                      SETUP                      :
          :.................................................:
          :   optimization level           extreme          :
          :   max. optcycles                  5000          :
          :   ANC micro-cycles                  20          :
          :   degrees of freedom                72          :
          :.................................................:
          :   RF solver                   davidson          :
          :   write xtbopt.log                true          :
          :   linear?                        false          :
          :   energy convergence         0.5000000E-07 Eh   :
          :   grad. convergence          0.5000000E-04 Eh/α :
          :   maxmium RF displ.          1.0000000          :
          :   Hlow (freq-cutoff)         0.1000000E-01      :
          :   Hmax (freq-cutoff)         5.0000000          :
          :   S6 in model hess.         20.0000000          :
          ...................................................

generating ANC from model Hessian ...
Using Lindh-Hessian (1995)
 Shifting diagonal of input Hessian by   9.635270787532410E-003
 Lowest  eigenvalues of input Hessian
    0.000000    0.000000    0.000000    0.000000    0.000000    0.000000
    0.010000    0.010628    0.010950    0.011200    0.012065    0.013156
    0.015691    0.018289    0.019032    0.019437    0.022401    0.024058
 Highest eigenvalues
    1.347451    1.535279    1.562291    1.864379    1.966137    1.986061
 

........................................................................
.............................. CYCLE    1 ..............................
........................................................................

 iter      E             dE          RMSdq      gap      omega  full diag
   1    -32.0630105 -0.320630E+02  0.588E-07    3.32       0.0  T
   2    -32.0630105 -0.710543E-14  0.314E-07    3.32   62428.6  T
   3    -32.0630105  0.355271E-13  0.197E-07    3.32   99567.5  T
     SCC iter.                  ...        0 min,  0.074 sec
     gradient                   ...        0 min,  0.002 sec
 * total energy  :   -31.5483114 Eh     change        0.2131628E-13 Eh
   gradient norm :     0.0403607 Eh/α   predicted     0.0000000E+00 (-100.00%)
   displ. norm   :     0.3278874 α      lambda       -0.7020331E-02
   maximum displ.:     0.2054175 α      in ANC's #8, #21, #17, ...

........................................................................
.............................. CYCLE    2 ..............................
........................................................................

 iter      E             dE          RMSdq      gap      omega  full diag
   1    -32.0674321 -0.320674E+02  0.405E-01    3.57       0.0  T
   2    -32.0676187 -0.186640E-03  0.206E-01    3.62       1.0  T
   3    -32.0676339 -0.152002E-04  0.647E-02    3.66       1.0  T
   4    -32.0676179  0.160124E-04  0.315E-02    3.65       1.0  T
   5    -32.0676430 -0.251221E-04  0.610E-03    3.65       3.2  T
   6    -32.0676431 -0.893107E-07  0.300E-03    3.65       6.5  T
   7    -32.0676431 -0.207682E-07  0.107E-03    3.65      18.3  T
   8    -32.0676431 -0.931580E-08  0.347E-04    3.65      56.6  T
   9    -32.0676431 -0.160821E-08  0.896E-05    3.65     218.8  T
  10    -32.0676431 -0.380354E-10  0.402E-05    3.65     487.4  T
  11    -32.0676431 -0.153690E-10  0.126E-05    3.65    1557.4  T
  12    -32.0676431 -0.767386E-12  0.444E-06    3.65    4418.5  T
  13    -32.0676431 -0.497380E-13  0.156E-06    3.65   12563.1  T
     SCC iter.                  ...        0 min,  0.076 sec
     gradient                   ...        0 min,  0.002 sec
 * total energy  :   -31.5519505 Eh     change       -0.3639062E-02 Eh
   gradient norm :     0.0126776 Eh/α   predicted    -0.3887685E-02 (   6.83%)
   displ. norm   :     0.2143243 α      lambda       -0.1072756E-02
   maximum displ.:     0.1090643 α      in ANC's #1, #8, #11, ...

........................................................................
.............................. CYCLE    3 ..............................
........................................................................

 iter      E             dE          RMSdq      gap      omega  full diag
   1    -32.0713586 -0.320714E+02  0.112E-01    3.65       0.0  T
   2    -32.0713602 -0.160824E-05  0.634E-02    3.64       1.0  T
   3    -32.0713589  0.131498E-05  0.930E-03    3.64       2.1  T
   4    -32.0713605 -0.156730E-05  0.444E-03    3.64       4.4  T
   5    -32.0713607 -0.250062E-06  0.974E-04    3.64      20.1  T
   6    -32.0713607 -0.696468E-08  0.508E-04    3.64      38.6  T
   7    -32.0713607 -0.672905E-09  0.131E-04    3.64     149.9  T
   8    -32.0713607 -0.108805E-09  0.456E-05    3.64     429.9  T
   9    -32.0713607 -0.205702E-10  0.181E-05    3.64    1086.2  T
  10    -32.0713607 -0.909495E-12  0.908E-06    3.64    2161.0  T
  11    -32.0713607 -0.107292E-11  0.251E-06    3.64    7821.7  T
     SCC iter.                  ...        0 min,  0.074 sec
     gradient                   ...        0 min,  0.002 sec
 * total energy  :   -31.5526698 Eh     change       -0.7193307E-03 Eh
   gradient norm :     0.0063559 Eh/α   predicted    -0.5612915E-03 ( -21.97%)
   displ. norm   :     0.2133549 α      lambda       -0.4589755E-03
   maximum displ.:     0.1188134 α      in ANC's #1, #8, #2, ...

........................................................................
.............................. CYCLE    4 ..............................
........................................................................

 iter      E             dE          RMSdq      gap      omega  full diag
   1    -32.0729880 -0.320730E+02  0.796E-02    3.65       0.0  T
   2    -32.0729889 -0.923493E-06  0.465E-02    3.65       1.0  T
   3    -32.0729871  0.181594E-05  0.970E-03    3.65       2.0  T
   4    -32.0729892 -0.208399E-05  0.319E-03    3.65       6.2  T
   5    -32.0729893 -0.124828E-06  0.946E-04    3.65      20.7  T
   6    -32.0729893 -0.330178E-08  0.487E-04    3.65      40.3  T
   7    -32.0729893 -0.628347E-09  0.924E-05    3.65     212.4  T
   8    -32.0729893 -0.116827E-09  0.384E-05    3.65     510.6  T
   9    -32.0729893 -0.118305E-10  0.145E-05    3.65    1356.9  T
  10    -32.0729893 -0.168399E-11  0.626E-06    3.65    3134.0  T
  11    -32.0729893 -0.852651E-13  0.194E-06    3.65   10106.0  T
     SCC iter.                  ...        0 min,  0.075 sec
     gradient                   ...        0 min,  0.002 sec
 * total energy  :   -31.5529899 Eh     change       -0.3200835E-03 Eh
   gradient norm :     0.0038546 Eh/α   predicted    -0.2399365E-03 ( -25.04%)
   displ. norm   :     0.2357001 α      lambda       -0.2836775E-03
   maximum displ.:     0.1394178 α      in ANC's #1, #5, #2, ...

........................................................................
.............................. CYCLE    5 ..............................
........................................................................

 iter      E             dE          RMSdq      gap      omega  full diag
   1    -32.0734150 -0.320734E+02  0.711E-02    3.66       0.0  T
   2    -32.0734155 -0.498236E-06  0.422E-02    3.66       1.0  T
   3    -32.0734147  0.836136E-06  0.669E-03    3.66       2.9  T
   4    -32.0734156 -0.983499E-06  0.212E-03    3.66       9.3  T
   5    -32.0734157 -0.476872E-07  0.858E-04    3.66      22.8  T
   6    -32.0734157 -0.289122E-08  0.427E-04    3.66      45.9  T
   7    -32.0734157 -0.284537E-09  0.606E-05    3.66     323.5  T
   8    -32.0734157 -0.260698E-10  0.267E-05    3.66     735.6  T
   9    -32.0734157 -0.790124E-11  0.122E-05    3.66    1613.0  T
  10    -32.0734157 -0.753175E-12  0.367E-06    3.66    5349.8  T
  11    -32.0734157 -0.426326E-13  0.102E-06    3.66   19177.3  T
     SCC iter.                  ...        0 min,  0.075 sec
     gradient                   ...        0 min,  0.002 sec
 * total energy  :   -31.5532168 Eh     change       -0.2268785E-03 Eh
   gradient norm :     0.0043159 Eh/α   predicted    -0.1497279E-03 ( -34.01%)
   displ. norm   :     0.3628744 α      lambda       -0.3729308E-03
   maximum displ.:     0.2055195 α      in ANC's #1, #5, #2, ...

........................................................................
.............................. CYCLE    6 ..............................
........................................................................

 iter      E             dE          RMSdq      gap      omega  full diag
   1    -32.0727332 -0.320727E+02  0.102E-01    3.67       0.0  T
   2    -32.0727339 -0.770656E-06  0.597E-02    3.67       1.0  T
   3    -32.0727338  0.168146E-06  0.447E-03    3.67       4.4  T
   4    -32.0727341 -0.299542E-06  0.242E-03    3.67       8.1  T
   5    -32.0727341 -0.668511E-07  0.122E-03    3.67      16.1  T
   6    -32.0727341 -0.661750E-08  0.317E-04    3.67      61.9  T
   7    -32.0727341 -0.426255E-09  0.786E-05    3.67     249.6  T
   8    -32.0727341 -0.411333E-10  0.378E-05    3.67     518.9  T
   9    -32.0727341 -0.992628E-11  0.163E-05    3.67    1203.7  T
  10    -32.0727341 -0.101608E-11  0.440E-06    3.67    4453.8  T
  11    -32.0727341 -0.135003E-12  0.172E-06    3.67   11422.1  T
     SCC iter.                  ...        0 min,  0.075 sec
     gradient                   ...        0 min,  0.002 sec
 * total energy  :   -31.5535120 Eh     change       -0.2951978E-03 Eh
   gradient norm :     0.0053805 Eh/α   predicted    -0.2110190E-03 ( -28.52%)
   displ. norm   :     0.4075851 α      lambda       -0.3956247E-03
   maximum displ.:     0.2307779 α      in ANC's #1, #5, #4, ...

........................................................................
.............................. CYCLE    7 ..............................
........................................................................

 iter      E             dE          RMSdq      gap      omega  full diag
   1    -32.0716404 -0.320716E+02  0.114E-01    3.67       0.0  T
   2    -32.0716413 -0.908518E-06  0.661E-02    3.67       1.0  T
   3    -32.0716413  0.119062E-07  0.529E-03    3.67       3.7  T
   4    -32.0716415 -0.194191E-06  0.241E-03    3.67       8.1  T
   5    -32.0716416 -0.355622E-07  0.101E-03    3.67      19.4  T
   6    -32.0716416 -0.886366E-08  0.388E-04    3.67      50.5  T
   7    -32.0716416 -0.819135E-09  0.983E-05    3.67     199.5  T
   8    -32.0716416 -0.941185E-10  0.408E-05    3.67     481.1  T
   9    -32.0716416 -0.325784E-10  0.159E-05    3.67    1232.0  T
  10    -32.0716416 -0.859757E-12  0.410E-06    3.67    4786.7  T
  11    -32.0716416 -0.135003E-12  0.145E-06    3.67   13559.7  T
     SCC iter.                  ...        0 min,  0.075 sec
     gradient                   ...        0 min,  0.002 sec
 * total energy  :   -31.5538065 Eh     change       -0.2945579E-03 Eh
   gradient norm :     0.0070896 Eh/α   predicted    -0.2306744E-03 ( -21.69%)
   displ. norm   :     0.3402993 α      lambda       -0.3853284E-03
   maximum displ.:     0.1928957 α      in ANC's #1, #5, #4, ...

........................................................................
.............................. CYCLE    8 ..............................
........................................................................

 iter      E             dE          RMSdq      gap      omega  full diag
   1    -32.0723545 -0.320724E+02  0.105E-01    3.67       0.0  T
   2    -32.0723560 -0.157333E-05  0.597E-02    3.67       1.0  T
   3    -32.0723555  0.527917E-06  0.868E-03    3.67       2.3  T
   4    -32.0723559 -0.390820E-06  0.471E-03    3.67       4.2  T
   5    -32.0723563 -0.440205E-06  0.844E-04    3.67      23.2  T
   6    -32.0723563 -0.680110E-09  0.422E-04    3.67      46.5  T
   7    -32.0723564 -0.491283E-09  0.132E-04    3.67     149.1  T
   8    -32.0723564 -0.325286E-09  0.413E-05    3.67     474.8  T
   9    -32.0723564 -0.207692E-10  0.196E-05    3.67    1000.3  T
  10    -32.0723564 -0.150635E-11  0.473E-06    3.67    4142.3  T
  11    -32.0723564 -0.781597E-13  0.170E-06    3.67   11537.4  T
     SCC iter.                  ...        0 min,  0.075 sec
     gradient                   ...        0 min,  0.002 sec
 * total energy  :   -31.5540873 Eh     change       -0.2807914E-03 Eh
   gradient norm :     0.0063488 Eh/α   predicted    -0.2149757E-03 ( -23.44%)
   displ. norm   :     0.3092876 α      lambda       -0.2688357E-03
   maximum displ.:     0.1659809 α      in ANC's #1, #5, #4, ...

........................................................................
.............................. CYCLE    9 ..............................
........................................................................

 iter      E             dE          RMSdq      gap      omega  full diag
   1    -32.0725191 -0.320725E+02  0.101E-01    3.67       0.0  T
   2    -32.0725206 -0.149785E-05  0.571E-02    3.67       1.0  T
   3    -32.0725191  0.154964E-05  0.117E-02    3.68       1.7  T
   4    -32.0725209 -0.178217E-05  0.381E-03    3.67       5.1  T
   5    -32.0725211 -0.201207E-06  0.115E-03    3.67      17.0  T
   6    -32.0725211 -0.125761E-07  0.483E-04    3.67      40.6  T
   7    -32.0725211 -0.160973E-09  0.138E-04    3.67     141.7  T
   8    -32.0725211 -0.158941E-09  0.475E-05    3.67     413.3  T
   9    -32.0725211 -0.275477E-10  0.205E-05    3.67     957.1  T
  10    -32.0725211 -0.257216E-11  0.639E-06    3.67    3071.3  T
  11    -32.0725211 -0.234479E-12  0.265E-06    3.67    7394.6  T
     SCC iter.                  ...        0 min,  0.074 sec
     gradient                   ...        0 min,  0.002 sec
 * total energy  :   -31.5542751 Eh     change       -0.1877454E-03 Eh
   gradient norm :     0.0052262 Eh/α   predicted    -0.1472780E-03 ( -21.55%)
   displ. norm   :     0.2187842 α      lambda       -0.1808276E-03
   maximum displ.:     0.1340967 α      in ANC's #4, #1, #5, ...

........................................................................
.............................. CYCLE   10 ..............................
........................................................................

 iter      E             dE          RMSdq      gap      omega  full diag
   1    -32.0751153 -0.320751E+02  0.739E-02    3.67       0.0  T
   2    -32.0751170 -0.168928E-05  0.417E-02    3.67       1.0  T
   3    -32.0751167  0.339454E-06  0.922E-03    3.67       2.1  T
   4    -32.0751171 -0.404699E-06  0.358E-03    3.67       5.5  T
   5    -32.0751173 -0.166427E-06  0.145E-03    3.67      13.5  T
   6    -32.0751173 -0.307727E-07  0.578E-04    3.67      33.9  T
   7    -32.0751173 -0.322103E-09  0.120E-04    3.67     163.7  T
   8    -32.0751173 -0.181878E-09  0.426E-05    3.67     460.8  T
   9    -32.0751173 -0.279812E-10  0.210E-05    3.67     935.8  T
  10    -32.0751173 -0.176925E-11  0.103E-05    3.67    1910.5  T
  11    -32.0751173 -0.319744E-12  0.285E-06    3.67    6886.7  T
  12    -32.0751173 -0.639488E-13  0.728E-07    3.67   26952.4  T
     SCC iter.                  ...        0 min,  0.075 sec
     gradient                   ...        0 min,  0.002 sec
 * total energy  :   -31.5543694 Eh     change       -0.9427331E-04 Eh
   gradient norm :     0.0032218 Eh/α   predicted    -0.9474325E-04 (   0.50%)
   displ. norm   :     0.3997150 α      lambda       -0.1697277E-03
   maximum displ.:     0.2244213 α      in ANC's #4, #5, #1, ...

........................................................................
.............................. CYCLE   11 ..............................
........................................................................

 iter      E             dE          RMSdq      gap      omega  full diag
   1    -32.0710121 -0.320710E+02  0.126E-01    3.67       0.0  T
   2    -32.0710143 -0.227769E-05  0.718E-02    3.67       1.0  T
   3    -32.0710133  0.100306E-05  0.149E-02    3.67       1.3  T
   4    -32.0710148 -0.148282E-05  0.331E-03    3.67       5.9  T
   5    -32.0710148 -0.183040E-07  0.209E-03    3.67       9.4  T
   6    -32.0710149 -0.475478E-07  0.601E-04    3.67      32.6  T
   7    -32.0710149 -0.159921E-08  0.175E-04    3.67     111.9  T
   8    -32.0710149 -0.808669E-10  0.659E-05    3.67     297.7  T
   9    -32.0710149 -0.448779E-10  0.278E-05    3.67     704.4  T
  10    -32.0710149 -0.319744E-11  0.798E-06    3.67    2457.0  T
  11    -32.0710149 -0.795808E-12  0.282E-06    3.67    6942.6  T
     SCC iter.                  ...        0 min,  0.074 sec
     gradient                   ...        0 min,  0.008 sec
 * total energy  :   -31.5543828 Eh     change       -0.1341143E-04 Eh
   gradient norm :     0.0070821 Eh/α   predicted    -0.9843134E-04 ( 633.94%)
   displ. norm   :     0.1536421 α      lambda       -0.1712530E-03
   maximum displ.:     0.0793914 α      in ANC's #1, #5, #3, ...

........................................................................
.............................. CYCLE   12 ..............................
........................................................................

 iter      E             dE          RMSdq      gap      omega  full diag
   1    -32.0744874 -0.320745E+02  0.482E-02    3.68       0.0  T
   2    -32.0744884 -0.964195E-06  0.271E-02    3.68       1.0  T
   3    -32.0744881  0.303180E-06  0.840E-03    3.68       2.3  T
   4    -32.0744885 -0.442685E-06  0.203E-03    3.68       9.7  T
   5    -32.0744885 -0.995618E-08  0.131E-03    3.68      15.0  T
   6    -32.0744885 -0.117144E-07  0.427E-04    3.68      45.9  T
   7    -32.0744885 -0.773326E-09  0.102E-04    3.68     193.1  T
   8    -32.0744885 -0.399254E-10  0.418E-05    3.68     469.5  T
   9    -32.0744885 -0.817124E-11  0.206E-05    3.68     952.5  T
  10    -32.0744885 -0.135714E-11  0.487E-06    3.68    4028.4  T
  11    -32.0744885 -0.341061E-12  0.168E-06    3.68   11660.6  T
     SCC iter.                  ...        0 min,  0.075 sec
     gradient                   ...        0 min,  0.002 sec
 * total energy  :   -31.5544734 Eh     change       -0.9065609E-04 Eh
   gradient norm :     0.0028003 Eh/α   predicted    -0.8764917E-04 (  -3.32%)
   displ. norm   :     0.0839695 α      lambda       -0.4974312E-04
   maximum displ.:     0.0576593 α      in ANC's #4, #3, #5, ...

........................................................................
.............................. CYCLE   13 ..............................
........................................................................

 iter      E             dE          RMSdq      gap      omega  full diag
   1    -32.0750532 -0.320751E+02  0.243E-02    3.68       0.0  T
   2    -32.0750533 -0.140337E-06  0.142E-02    3.68       1.4  T
   3    -32.0750533  0.676523E-07  0.367E-03    3.68       5.3  T
   4    -32.0750534 -0.998925E-07  0.806E-04    3.68      24.3  T
   5    -32.0750534  0.799922E-09  0.527E-04    3.68      37.2  T
   6    -32.0750534 -0.386957E-08  0.211E-04    3.68      92.8  T
   7    -32.0750534 -0.847393E-10  0.452E-05    3.68     433.8  T
   8    -32.0750534 -0.115818E-10  0.116E-05    3.68    1694.6  T
   9    -32.0750534 -0.454747E-12  0.464E-06    3.68    4230.6  T
  10    -32.0750534 -0.234479E-12  0.242E-06    3.68    8112.9  T
     SCC iter.                  ...        0 min,  0.075 sec
     gradient                   ...        0 min,  0.002 sec
 * total energy  :   -31.5545129 Eh     change       -0.3945892E-04 Eh
   gradient norm :     0.0017297 Eh/α   predicted    -0.2504787E-04 ( -36.52%)
   displ. norm   :     0.3764033 α      lambda       -0.8489742E-04
   maximum displ.:     0.2683124 α      in ANC's #4, #5, #1, ...

........................................................................
.............................. CYCLE   14 ..............................
........................................................................

 iter      E             dE          RMSdq      gap      omega  full diag
   1    -32.0740758 -0.320741E+02  0.107E-01    3.69       0.0  T
   2    -32.0740767 -0.826294E-06  0.629E-02    3.69       1.0  T
   3    -32.0740767 -0.597243E-07  0.502E-03    3.69       3.9  T
   4    -32.0740769 -0.123515E-06  0.216E-03    3.69       9.1  T
   5    -32.0740769 -0.178923E-07  0.110E-03    3.69      17.8  T
   6    -32.0740769 -0.964089E-08  0.472E-04    3.69      41.6  T
   7    -32.0740769 -0.145624E-08  0.909E-05    3.69     215.7  T
   8    -32.0740769 -0.850520E-10  0.333E-05    3.69     588.9  T
   9    -32.0740769 -0.359535E-11  0.193E-05    3.69    1014.4  T
  10    -32.0740769 -0.469669E-11  0.643E-06    3.69    3051.7  T
  11    -32.0740769 -0.135003E-12  0.276E-06    3.69    7104.9  T
     SCC iter.                  ...        0 min,  0.075 sec
     gradient                   ...        0 min,  0.002 sec
 * total energy  :   -31.5545599 Eh     change       -0.4697503E-04 Eh
   gradient norm :     0.0027385 Eh/α   predicted    -0.4513424E-04 (  -3.92%)
   displ. norm   :     0.0376137 α      lambda       -0.1842240E-04
   maximum displ.:     0.0209673 α      in ANC's #5, #4, #1, ...

........................................................................
.............................. CYCLE   15 ..............................
........................................................................

 iter      E             dE          RMSdq      gap      omega  full diag
   1    -32.0748420 -0.320748E+02  0.129E-02    3.68       0.0  T
   2    -32.0748421 -0.605108E-07  0.724E-03    3.68       2.7  T
   3    -32.0748421  0.646645E-08  0.142E-03    3.68      13.8  T
   4    -32.0748421 -0.241765E-08  0.774E-04    3.68      25.3  T
   5    -32.0748421 -0.126034E-07  0.206E-04    3.68      95.1  T
   6    -32.0748421 -0.130676E-09  0.743E-05    3.68     264.1  T
   7    -32.0748421  0.760281E-12  0.194E-05    3.68    1012.8  T
   8    -32.0748421 -0.598277E-11  0.819E-06    3.68    2394.1  T
   9    -32.0748421 -0.710543E-12  0.197E-06    3.68    9932.4  T
     SCC iter.                  ...        0 min,  0.074 sec
     gradient                   ...        0 min,  0.002 sec
 * total energy  :   -31.5545729 Eh     change       -0.1308983E-04 Eh
   gradient norm :     0.0018202 Eh/α   predicted    -0.9226531E-05 ( -29.51%)
   displ. norm   :     0.0450046 α      lambda       -0.1366805E-04
   maximum displ.:     0.0223236 α      in ANC's #2, #5, #11, ...

........................................................................
.............................. CYCLE   16 ..............................
........................................................................

 iter      E             dE          RMSdq      gap      omega  full diag
   1    -32.0753504 -0.320754E+02  0.166E-02    3.68       0.0  T
   2    -32.0753505 -0.134928E-06  0.943E-03    3.68       2.1  T
   3    -32.0753504  0.925880E-07  0.295E-03    3.68       6.7  T
   4    -32.0753505 -0.112058E-06  0.103E-03    3.68      19.1  T
   5    -32.0753505 -0.116956E-07  0.326E-04    3.68      60.2  T
   6    -32.0753505 -0.127094E-08  0.170E-04    3.68     115.4  T
   7    -32.0753505 -0.801350E-10  0.402E-05    3.68     487.7  T
   8    -32.0753505 -0.473932E-11  0.112E-05    3.68    1758.4  T
   9    -32.0753505 -0.139977E-11  0.510E-06    3.68    3844.9  T
  10    -32.0753505 -0.191847E-12  0.169E-06    3.68   11603.5  T
     SCC iter.                  ...        0 min,  0.075 sec
     gradient                   ...        0 min,  0.002 sec
 * total energy  :   -31.5545837 Eh     change       -0.1079895E-04 Eh
   gradient norm :     0.0012890 Eh/α   predicted    -0.6844049E-05 ( -36.62%)
   displ. norm   :     0.0521071 α      lambda       -0.6979084E-05
   maximum displ.:     0.0296383 α      in ANC's #2, #4, #9, ...

........................................................................
.............................. CYCLE   17 ..............................
........................................................................

 iter      E             dE          RMSdq      gap      omega  full diag
   1    -32.0751481 -0.320751E+02  0.165E-02    3.68       0.0  T
   2    -32.0751482 -0.106970E-07  0.971E-03    3.68       2.0  T
   3    -32.0751482 -0.122663E-08  0.520E-04    3.68      37.7  T
   4    -32.0751482 -0.227953E-08  0.281E-04    3.68      69.8  T
   5    -32.0751482 -0.770804E-09  0.990E-05    3.68     198.2  T
   6    -32.0751482 -0.233626E-10  0.372E-05    3.68     527.2  T
   7    -32.0751482 -0.167759E-10  0.113E-05    3.68    1742.4  T
   8    -32.0751482 -0.802913E-12  0.463E-06    3.68    4234.6  T
   9    -32.0751482 -0.177636E-12  0.172E-06    3.68   11430.1  T
     SCC iter.                  ...        0 min,  0.074 sec
     gradient                   ...        0 min,  0.002 sec
 * total energy  :   -31.5545929 Eh     change       -0.9150303E-05 Eh
   gradient norm :     0.0014258 Eh/α   predicted    -0.3494220E-05 ( -61.81%)
   displ. norm   :     0.1986592 α      lambda       -0.2492552E-04
   maximum displ.:     0.1220052 α      in ANC's #2, #4, #8, ...

........................................................................
.............................. CYCLE   18 ..............................
........................................................................

 iter      E             dE          RMSdq      gap      omega  full diag
   1    -32.0742752 -0.320743E+02  0.655E-02    3.68       0.0  T
   2    -32.0742754 -0.159626E-06  0.386E-02    3.68       1.0  T
   3    -32.0742754 -0.301444E-08  0.230E-03    3.68       8.5  T
   4    -32.0742755 -0.584866E-07  0.921E-04    3.68      21.3  T
   5    -32.0742755 -0.234212E-08  0.408E-04    3.68      48.1  T
   6    -32.0742755 -0.988265E-09  0.148E-04    3.68     132.1  T
   7    -32.0742755 -0.769731E-10  0.301E-05    3.68     650.5  T
   8    -32.0742755 -0.256506E-11  0.127E-05    3.68    1544.9  T
   9    -32.0742755 -0.119371E-11  0.508E-06    3.68    3857.4  T
  10    -32.0742755 -0.476064E-12  0.183E-06    3.68   10699.4  T
     SCC iter.                  ...        0 min,  0.075 sec
     gradient                   ...        0 min,  0.002 sec
 * total energy  :   -31.5546128 Eh     change       -0.1991045E-04 Eh
   gradient norm :     0.0013046 Eh/α   predicted    -0.1268337E-04 ( -36.30%)
   displ. norm   :     0.0419071 α      lambda       -0.4500932E-05
   maximum displ.:     0.0283843 α      in ANC's #2, #1, #8, ...

........................................................................
.............................. CYCLE   19 ..............................
........................................................................

 iter      E             dE          RMSdq      gap      omega  full diag
   1    -32.0745628 -0.320746E+02  0.174E-02    3.68       0.0  T
   2    -32.0745629 -0.343075E-07  0.103E-02    3.68       1.9  T
   3    -32.0745628  0.935833E-08  0.143E-03    3.68      13.7  T
   4    -32.0745629 -0.163389E-07  0.243E-04    3.68      80.8  T
   5    -32.0745629 -0.139572E-09  0.156E-04    3.68     126.1  T
   6    -32.0745629 -0.189651E-09  0.565E-05    3.68     346.9  T
   7    -32.0745629 -0.186517E-10  0.168E-05    3.68    1170.5  T
   8    -32.0745629 -0.236611E-11  0.608E-06    3.68    3223.1  T
   9    -32.0745629 -0.554223E-12  0.195E-06    3.68   10050.9  T
     SCC iter.                  ...        0 min,  0.074 sec
     gradient                   ...        0 min,  0.002 sec
 * total energy  :   -31.5546175 Eh     change       -0.4662749E-05 Eh
   gradient norm :     0.0007080 Eh/α   predicted    -0.2255807E-05 ( -51.62%)
   displ. norm   :     0.0504307 α      lambda       -0.4479711E-05
   maximum displ.:     0.0372802 α      in ANC's #1, #2, #10, ...

........................................................................
.............................. CYCLE   20 ..............................
........................................................................

 iter      E             dE          RMSdq      gap      omega  full diag
   1    -32.0749496 -0.320749E+02  0.228E-02    3.68       0.0  T
   2    -32.0749496 -0.331497E-07  0.134E-02    3.67       1.5  T
   3    -32.0749496  0.886102E-08  0.136E-03    3.67      14.5  T
   4    -32.0749496 -0.169180E-07  0.328E-04    3.67      59.8  T
   5    -32.0749496 -0.212950E-09  0.198E-04    3.67      99.0  T
   6    -32.0749496 -0.295941E-09  0.715E-05    3.67     274.4  T
   7    -32.0749496 -0.106581E-10  0.177E-05    3.67    1105.8  T
   8    -32.0749496 -0.100187E-11  0.533E-06    3.67    3682.1  T
   9    -32.0749496 -0.248690E-12  0.239E-06    3.67    8206.0  T
     SCC iter.                  ...        0 min,  0.074 sec
     gradient                   ...        0 min,  0.002 sec
 * total energy  :   -31.5546224 Eh     change       -0.4920690E-05 Eh
   gradient norm :     0.0005496 Eh/α   predicted    -0.2244547E-05 ( -54.39%)
   displ. norm   :     0.0692766 α      lambda       -0.4384962E-05
   maximum displ.:     0.0530818 α      in ANC's #1, #2, #10, ...
 * RMSD in coord.:     0.5510685 α      energy gain  -0.6310955E-02 Eh

generating ANC from model Hessian ...
Using Lindh-Hessian (1995)
 Shifting diagonal of input Hessian by   9.183006769431297E-003
 Lowest  eigenvalues of input Hessian
    0.000000    0.000000    0.000000    0.000000    0.000000    0.000000
    0.010000    0.010220    0.010818    0.011095    0.011282    0.012905
    0.015496    0.017377    0.017945    0.018821    0.020359    0.024162
 Highest eigenvalues
    1.363892    1.554419    1.573934    1.882312    1.988968    2.004475
 

........................................................................
.............................. CYCLE   21 ..............................
........................................................................

 iter      E             dE          RMSdq      gap      omega  full diag
   1    -32.0751212 -0.320751E+02  0.314E-02    3.68       0.0  T
   2    -32.0751213 -0.516042E-07  0.183E-02    3.68       1.1  T
   3    -32.0751213  0.591111E-08  0.134E-03    3.68      14.7  T
   4    -32.0751213 -0.165871E-07  0.566E-04    3.68      34.6  T
   5    -32.0751213 -0.317026E-08  0.227E-04    3.68      86.4  T
   6    -32.0751213 -0.453056E-09  0.110E-04    3.68     178.8  T
   7    -32.0751213 -0.251958E-10  0.244E-05    3.68     802.3  T
   8    -32.0751213 -0.954259E-11  0.757E-06    3.68    2591.4  T
   9    -32.0751213 -0.838440E-12  0.303E-06    3.68    6464.4  T
     SCC iter.                  ...        0 min,  0.074 sec
     gradient                   ...        0 min,  0.005 sec
 * total energy  :   -31.5546273 Eh     change       -0.4888194E-05 Eh
   gradient norm :     0.0009209 Eh/α   predicted     0.0000000E+00 (-100.00%)
   displ. norm   :     0.0183363 α      lambda       -0.9203395E-06
   maximum displ.:     0.0134412 α      in ANC's #1, #3, #4, ...

........................................................................
.............................. CYCLE   22 ..............................
........................................................................

 iter      E             dE          RMSdq      gap      omega  full diag
   1    -32.0748861 -0.320749E+02  0.814E-03    3.68       0.0  T
   2    -32.0748861 -0.190178E-07  0.470E-03    3.68       4.2  T
   3    -32.0748861  0.691485E-08  0.102E-03    3.68      19.3  T
   4    -32.0748861 -0.875735E-08  0.343E-04    3.68      57.2  T
   5    -32.0748861 -0.130202E-08  0.164E-04    3.68     119.6  T
   6    -32.0748861 -0.387608E-09  0.575E-05    3.68     340.8  T
   7    -32.0748861 -0.127471E-10  0.217E-05    3.68     904.9  T
   8    -32.0748861 -0.456879E-11  0.703E-06    3.68    2790.3  T
   9    -32.0748861 -0.213163E-12  0.294E-06    3.68    6661.7  T
     SCC iter.                  ...        0 min,  0.075 sec
     gradient                   ...        0 min,  0.002 sec
 * total energy  :   -31.5546309 Eh     change       -0.3592646E-05 Eh
   gradient norm :     0.0002618 Eh/α   predicted    -0.1755530E-05 ( -51.14%)
   displ. norm   :     0.0288483 α      lambda       -0.2516455E-05
   maximum displ.:     0.0216461 α      in ANC's #1, #3, #11, ...

........................................................................
.............................. CYCLE   23 ..............................
........................................................................

 iter      E             dE          RMSdq      gap      omega  full diag
   1    -32.0748671 -0.320749E+02  0.115E-02    3.67       0.0  T
   2    -32.0748672 -0.186832E-07  0.662E-03    3.67       3.0  T
   3    -32.0748672  0.588229E-08  0.927E-04    3.67      21.2  T
   4    -32.0748672 -0.674607E-08  0.414E-04    3.67      47.4  T
   5    -32.0748672 -0.276828E-08  0.120E-04    3.67     162.9  T
   6    -32.0748672 -0.128097E-09  0.601E-05    3.67     326.2  T
   7    -32.0748672 -0.131024E-10  0.180E-05    3.67    1088.5  T
   8    -32.0748672 -0.472511E-11  0.502E-06    3.67    3905.4  T
   9    -32.0748672 -0.220268E-12  0.157E-06    3.67   12484.0  T
     SCC iter.                  ...        0 min,  0.074 sec
     gradient                   ...        0 min,  0.002 sec
 * total energy  :   -31.5546338 Eh     change       -0.2918820E-05 Eh
   gradient norm :     0.0005048 Eh/α   predicted    -0.1276690E-05 ( -56.26%)
   displ. norm   :     0.0381678 α      lambda       -0.2591195E-05
   maximum displ.:     0.0276339 α      in ANC's #1, #3, #6, ...

........................................................................
.............................. CYCLE   24 ..............................
........................................................................

 iter      E             dE          RMSdq      gap      omega  full diag
   1    -32.0749066 -0.320749E+02  0.147E-02    3.68       0.0  T
   2    -32.0749066 -0.185115E-07  0.846E-03    3.68       2.3  T
   3    -32.0749066  0.173004E-08  0.805E-04    3.68      24.4  T
   4    -32.0749066 -0.258449E-08  0.400E-04    3.68      49.0  T
   5    -32.0749066 -0.226822E-08  0.133E-04    3.68     147.2  T
   6    -32.0749066 -0.196088E-09  0.657E-05    3.68     298.7  T
   7    -32.0749066 -0.830624E-11  0.119E-05    3.68    1643.3  T
   8    -32.0749066 -0.220979E-11  0.410E-06    3.68    4784.8  T
   9    -32.0749066 -0.156319E-12  0.177E-06    3.68   11104.1  T
     SCC iter.                  ...        0 min,  0.074 sec
     gradient                   ...        0 min,  0.002 sec
 * total energy  :   -31.5546371 Eh     change       -0.3343513E-05 Eh
   gradient norm :     0.0005906 Eh/α   predicted    -0.1308768E-05 ( -60.86%)
   displ. norm   :     0.0523868 α      lambda       -0.3364302E-05
   maximum displ.:     0.0373561 α      in ANC's #1, #3, #6, ...

........................................................................
.............................. CYCLE   25 ..............................
........................................................................

 iter      E             dE          RMSdq      gap      omega  full diag
   1    -32.0749352 -0.320749E+02  0.197E-02    3.67       0.0  T
   2    -32.0749352 -0.275761E-07  0.116E-02    3.67       1.7  T
   3    -32.0749352  0.440229E-08  0.112E-03    3.67      17.5  T
   4    -32.0749352 -0.935760E-08  0.404E-04    3.67      48.6  T
   5    -32.0749352 -0.846306E-09  0.203E-04    3.67      96.8  T
   6    -32.0749352 -0.454264E-09  0.935E-05    3.67     209.8  T
   7    -32.0749352 -0.109068E-10  0.155E-05    3.67    1268.9  T
   8    -32.0749352 -0.368061E-11  0.617E-06    3.67    3179.1  T
   9    -32.0749352 -0.810019E-12  0.217E-06    3.67    9043.7  T
     SCC iter.                  ...        0 min,  0.074 sec
     gradient                   ...        0 min,  0.002 sec
 * total energy  :   -31.5546414 Eh     change       -0.4287704E-05 Eh
   gradient norm :     0.0004575 Eh/α   predicted    -0.1689084E-05 ( -60.61%)
   displ. norm   :     0.0609156 α      lambda       -0.3431108E-05
   maximum displ.:     0.0441365 α      in ANC's #1, #3, #6, ...

........................................................................
.............................. CYCLE   26 ..............................
........................................................................

 iter      E             dE          RMSdq      gap      omega  full diag
   1    -32.0749096 -0.320749E+02  0.229E-02    3.68       0.0  T
   2    -32.0749097 -0.480354E-07  0.133E-02    3.68       1.5  T
   3    -32.0749097  0.224897E-08  0.138E-03    3.68      14.2  T
   4    -32.0749097 -0.102191E-07  0.469E-04    3.68      41.8  T
   5    -32.0749097 -0.100470E-08  0.208E-04    3.68      94.3  T
   6    -32.0749097 -0.498225E-09  0.905E-05    3.68     216.8  T
   7    -32.0749097 -0.629541E-11  0.196E-05    3.68     998.2  T
   8    -32.0749097 -0.441958E-11  0.774E-06    3.68    2534.9  T
   9    -32.0749097 -0.554223E-12  0.313E-06    3.68    6260.4  T
     SCC iter.                  ...        0 min,  0.073 sec
     gradient                   ...        0 min,  0.002 sec
 * total energy  :   -31.5546454 Eh     change       -0.4023702E-05 Eh
   gradient norm :     0.0002628 Eh/α   predicted    -0.1722620E-05 ( -57.19%)
   displ. norm   :     0.0469493 α      lambda       -0.2204188E-05
   maximum displ.:     0.0360805 α      in ANC's #1, #3, #6, ...

........................................................................
.............................. CYCLE   27 ..............................
........................................................................

 iter      E             dE          RMSdq      gap      omega  full diag
   1    -32.0749721 -0.320750E+02  0.184E-02    3.67       0.0  T
   2    -32.0749721 -0.222339E-07  0.108E-02    3.67       1.8  T
   3    -32.0749721  0.491357E-08  0.105E-03    3.67      18.7  T
   4    -32.0749721 -0.952875E-08  0.350E-04    3.67      56.0  T
   5    -32.0749721 -0.613070E-09  0.177E-04    3.67     110.5  T
   6    -32.0749721 -0.365930E-09  0.699E-05    3.67     280.5  T
   7    -32.0749721 -0.369482E-11  0.167E-05    3.67    1176.7  T
   8    -32.0749721 -0.363798E-11  0.597E-06    3.67    3282.4  T
   9    -32.0749721 -0.859757E-12  0.212E-06    3.67    9255.7  T
     SCC iter.                  ...        0 min,  0.073 sec
     gradient                   ...        0 min,  0.002 sec
 * total energy  :   -31.5546481 Eh     change       -0.2638957E-05 Eh
   gradient norm :     0.0001888 Eh/α   predicted    -0.1103672E-05 ( -58.18%)
   displ. norm   :     0.0469493 α      lambda        0.0000000E+00
   maximum displ.:     0.0360805 α      in ANC's #1, #3, #6, ...

........................................................................
.............................. CYCLE   28 ..............................
........................................................................

 iter      E             dE          RMSdq      gap      omega  full diag
   1    -32.0749959 -0.320750E+02  0.184E-02    3.67       0.0  T
   2    -32.0749960 -0.219161E-07  0.108E-02    3.67       1.8  T
   3    -32.0749960  0.514803E-08  0.105E-03    3.67      18.6  T
   4    -32.0749960 -0.974919E-08  0.350E-04    3.67      56.1  T
   5    -32.0749960 -0.625015E-09  0.177E-04    3.67     110.7  T
   6    -32.0749960 -0.364672E-09  0.701E-05    3.67     279.8  T
   7    -32.0749960 -0.375167E-11  0.163E-05    3.67    1203.1  T
   8    -32.0749960 -0.372324E-11  0.594E-06    3.67    3301.0  T
   9    -32.0749960 -0.802913E-12  0.207E-06    3.67    9489.3  T
     SCC iter.                  ...        0 min,  0.073 sec
     gradient                   ...        0 min,  0.002 sec
 * total energy  :   -31.5546494 Eh     change       -0.1314569E-05 Eh
   gradient norm :     0.0004687 Eh/α   predicted    -0.3755289E-08 ( -99.71%)
   displ. norm   :     0.0202427 α      lambda       -0.1227139E-05
   maximum displ.:     0.0175641 α      in ANC's #1, #3, #6, ...

........................................................................
.............................. CYCLE   29 ..............................
........................................................................

 iter      E             dE          RMSdq      gap      omega  full diag
   1    -32.0750027 -0.320750E+02  0.856E-03    3.67       0.0  T
   2    -32.0750027 -0.596390E-08  0.498E-03    3.67       3.9  T
   3    -32.0750027 -0.529454E-09  0.434E-04    3.67      45.2  T
   4    -32.0750027 -0.527848E-09  0.166E-04    3.67     118.4  T
   5    -32.0750027 -0.215451E-09  0.685E-05    3.67     286.4  T
   6    -32.0750027 -0.473150E-10  0.312E-05    3.67     627.7  T
   7    -32.0750027 -0.760281E-12  0.722E-06    3.67    2718.1  T
   8    -32.0750027 -0.611067E-12  0.250E-06    3.67    7857.1  T
     SCC iter.                  ...        0 min,  0.073 sec
     gradient                   ...        0 min,  0.002 sec
 * total energy  :   -31.5546510 Eh     change       -0.1615254E-05 Eh
   gradient norm :     0.0003580 Eh/α   predicted    -0.6139397E-06 ( -61.99%)
   displ. norm   :     0.0200599 α      lambda       -0.1674944E-05
   maximum displ.:     0.0154405 α      in ANC's #1, #8, #10, ...

........................................................................
.............................. CYCLE   30 ..............................
........................................................................

 iter      E             dE          RMSdq      gap      omega  full diag
   1    -32.0749992 -0.320750E+02  0.793E-03    3.67       0.0  T
   2    -32.0749992 -0.103005E-07  0.459E-03    3.67       4.3  T
   3    -32.0749992 -0.854818E-09  0.557E-04    3.67      35.2  T
   4    -32.0749992 -0.443208E-09  0.215E-04    3.67      91.3  T
   5    -32.0749992 -0.405031E-09  0.541E-05    3.67     362.8  T
   6    -32.0749992 -0.176286E-10  0.334E-05    3.67     586.4  T
   7    -32.0749992 -0.853362E-11  0.104E-05    3.67    1879.3  T
   8    -32.0749992 -0.369482E-12  0.273E-06    3.67    7176.2  T
   9    -32.0749992 -0.994760E-13  0.117E-06    3.67   16731.1  T
     SCC iter.                  ...        0 min,  0.074 sec
     gradient                   ...        0 min,  0.002 sec
 * total energy  :   -31.5546531 Eh     change       -0.2079254E-05 Eh
   gradient norm :     0.0002053 Eh/α   predicted    -0.8391786E-06 ( -59.64%)
   displ. norm   :     0.0296514 α      lambda       -0.1786491E-05
   maximum displ.:     0.0209750 α      in ANC's #1, #8, #10, ...

........................................................................
.............................. CYCLE   31 ..............................
........................................................................

 iter      E             dE          RMSdq      gap      omega  full diag
   1    -32.0749764 -0.320750E+02  0.103E-02    3.67       0.0  T
   2    -32.0749764 -0.493749E-08  0.604E-03    3.67       3.2  T
   3    -32.0749764  0.576961E-09  0.423E-04    3.67      46.3  T
   4    -32.0749764 -0.193512E-08  0.212E-04    3.67      92.5  T
   5    -32.0749764 -0.470230E-09  0.733E-05    3.67     267.6  T
   6    -32.0749764 -0.179554E-10  0.326E-05    3.67     601.0  T
   7    -32.0749764 -0.426326E-11  0.732E-06    3.67    2679.1  T
   8    -32.0749764 -0.575540E-12  0.304E-06    3.67    6460.5  T
     SCC iter.                  ...        0 min,  0.073 sec
     gradient                   ...        0 min,  0.002 sec
 * total energy  :   -31.5546552 Eh     change       -0.2136886E-05 Eh
   gradient norm :     0.0002743 Eh/α   predicted    -0.8958102E-06 ( -58.08%)
   displ. norm   :     0.0276925 α      lambda       -0.1313785E-05
   maximum displ.:     0.0203241 α      in ANC's #1, #8, #5, ...

........................................................................
.............................. CYCLE   32 ..............................
........................................................................

 iter      E             dE          RMSdq      gap      omega  full diag
   1    -32.0749547 -0.320750E+02  0.984E-03    3.67       0.0  T
   2    -32.0749547 -0.447906E-08  0.578E-03    3.67       3.4  T
   3    -32.0749547  0.905992E-09  0.420E-04    3.67      46.7  T
   4    -32.0749547 -0.201496E-08  0.189E-04    3.67     103.9  T
   5    -32.0749547 -0.419980E-09  0.690E-05    3.67     284.2  T
   6    -32.0749547 -0.121787E-10  0.338E-05    3.67     580.7  T
   7    -32.0749547 -0.434852E-11  0.605E-06    3.67    3239.3  T
   8    -32.0749547 -0.731859E-12  0.258E-06    3.67    7590.8  T
     SCC iter.                  ...        0 min,  0.073 sec
     gradient                   ...        0 min,  0.002 sec
 * total energy  :   -31.5546569 Eh     change       -0.1652023E-05 Eh
   gradient norm :     0.0002955 Eh/α   predicted    -0.6574288E-06 ( -60.20%)
   displ. norm   :     0.0241429 α      lambda       -0.1119560E-05
   maximum displ.:     0.0187641 α      in ANC's #1, #5, #8, ...

........................................................................
.............................. CYCLE   33 ..............................
........................................................................

 iter      E             dE          RMSdq      gap      omega  full diag
   1    -32.0749533 -0.320750E+02  0.907E-03    3.67       0.0  T
   2    -32.0749533 -0.354313E-08  0.533E-03    3.67       3.7  T
   3    -32.0749533  0.129032E-08  0.407E-04    3.67      48.1  T
   4    -32.0749533 -0.230481E-08  0.170E-04    3.67     115.4  T
   5    -32.0749533 -0.262119E-09  0.586E-05    3.67     334.4  T
   6    -32.0749533 -0.111484E-10  0.262E-05    3.67     749.6  T
   7    -32.0749533 -0.200373E-11  0.843E-06    3.67    2325.9  T
   8    -32.0749533 -0.112266E-11  0.253E-06    3.67    7744.1  T
     SCC iter.                  ...        0 min,  0.073 sec
     gradient                   ...        0 min,  0.002 sec
 * total energy  :   -31.5546584 Eh     change       -0.1484705E-05 Eh
   gradient norm :     0.0002236 Eh/α   predicted    -0.5630030E-06 ( -62.08%)
   displ. norm   :     0.0226416 α      lambda       -0.1084987E-05
   maximum displ.:     0.0184506 α      in ANC's #1, #5, #11, ...

........................................................................
.............................. CYCLE   34 ..............................
........................................................................

 iter      E             dE          RMSdq      gap      omega  full diag
   1    -32.0749588 -0.320750E+02  0.916E-03    3.67       0.0  T
   2    -32.0749588 -0.521440E-08  0.535E-03    3.67       3.7  T
   3    -32.0749588  0.587669E-09  0.416E-04    3.67      47.2  T
   4    -32.0749588 -0.991015E-09  0.220E-04    3.67      89.1  T
   5    -32.0749588 -0.892776E-09  0.583E-05    3.67     336.1  T
   6    -32.0749588 -0.183249E-10  0.307E-05    3.67     637.8  T
   7    -32.0749588 -0.344613E-11  0.876E-06    3.67    2239.4  T
   8    -32.0749588 -0.547118E-12  0.317E-06    3.67    6182.7  T
     SCC iter.                  ...        0 min,  0.074 sec
     gradient                   ...        0 min,  0.002 sec
 * total energy  :   -31.5546598 Eh     change       -0.1433109E-05 Eh
   gradient norm :     0.0001465 Eh/α   predicted    -0.5459023E-06 ( -61.91%)
   displ. norm   :     0.0219247 α      lambda       -0.1015068E-05
   maximum displ.:     0.0183865 α      in ANC's #1, #5, #10, ...

........................................................................
.............................. CYCLE   35 ..............................
........................................................................

 iter      E             dE          RMSdq      gap      omega  full diag
   1    -32.0749670 -0.320750E+02  0.908E-03    3.67       0.0  T
   2    -32.0749670 -0.506869E-08  0.530E-03    3.67       3.7  T
   3    -32.0749670  0.112530E-08  0.440E-04    3.67      44.6  T
   4    -32.0749670 -0.191660E-08  0.187E-04    3.67     105.0  T
   5    -32.0749670 -0.414431E-09  0.799E-05    3.67     245.5  T
   6    -32.0749670 -0.607372E-10  0.363E-05    3.67     540.0  T
   7    -32.0749670 -0.105871E-11  0.699E-06    3.67    2805.2  T
   8    -32.0749670 -0.817124E-12  0.305E-06    3.67    6432.6  T
     SCC iter.                  ...        0 min,  0.073 sec
     gradient                   ...        0 min,  0.002 sec
 * total energy  :   -31.5546611 Eh     change       -0.1321482E-05 Eh
   gradient norm :     0.0001481 Eh/α   predicted    -0.5083087E-06 ( -61.53%)
   displ. norm   :     0.0194460 α      lambda       -0.8410577E-06
   maximum displ.:     0.0167882 α      in ANC's #1, #5, #10, ...

........................................................................
.............................. CYCLE   36 ..............................
........................................................................

 iter      E             dE          RMSdq      gap      omega  full diag
   1    -32.0749721 -0.320750E+02  0.834E-03    3.67       0.0  T
   2    -32.0749721 -0.410215E-08  0.486E-03    3.67       4.0  T
   3    -32.0749721  0.615380E-09  0.385E-04    3.67      50.9  T
   4    -32.0749721 -0.113636E-08  0.175E-04    3.67     111.8  T
   5    -32.0749721 -0.396462E-09  0.754E-05    3.67     260.0  T
   6    -32.0749721 -0.684892E-10  0.362E-05    3.67     541.2  T
   7    -32.0749721 -0.220979E-11  0.569E-06    3.67    3444.6  T
   8    -32.0749721 -0.369482E-12  0.227E-06    3.67    8624.7  T
     SCC iter.                  ...        0 min,  0.073 sec
     gradient                   ...        0 min,  0.002 sec
 * total energy  :   -31.5546623 Eh     change       -0.1132307E-05 Eh
   gradient norm :     0.0001727 Eh/α   predicted    -0.4216628E-06 ( -62.76%)
   displ. norm   :     0.0169253 α      lambda       -0.7037955E-06
   maximum displ.:     0.0150934 α      in ANC's #1, #10, #5, ...

........................................................................
.............................. CYCLE   37 ..............................
........................................................................

 iter      E             dE          RMSdq      gap      omega  full diag
   1    -32.0749831 -0.320750E+02  0.737E-03    3.67       0.0  T
   2    -32.0749831 -0.479713E-08  0.425E-03    3.67       4.6  T
   3    -32.0749831  0.257145E-09  0.382E-04    3.67      51.4  T
   4    -32.0749831 -0.419071E-09  0.196E-04    3.67     100.1  T
   5    -32.0749831 -0.671555E-09  0.542E-05    3.67     361.6  T
   6    -32.0749831 -0.214513E-10  0.279E-05    3.67     702.2  T
   7    -32.0749831 -0.639488E-12  0.493E-06    3.67    3975.6  T
   8    -32.0749831 -0.646594E-12  0.144E-06    3.67   13654.1  T
     SCC iter.                  ...        0 min,  0.076 sec
     gradient                   ...        0 min,  0.002 sec
 * total energy  :   -31.5546633 Eh     change       -0.1014766E-05 Eh
   gradient norm :     0.0001662 Eh/α   predicted    -0.3564716E-06 ( -64.87%)
   displ. norm   :     0.0152234 α      lambda       -0.6564780E-06
   maximum displ.:     0.0136582 α      in ANC's #1, #10, #4, ...

........................................................................
.............................. CYCLE   38 ..............................
........................................................................

 iter      E             dE          RMSdq      gap      omega  full diag
   1    -32.0749788 -0.320750E+02  0.674E-03    3.67       0.0  T
   2    -32.0749788 -0.306458E-08  0.389E-03    3.67       5.0  T
   3    -32.0749788  0.527777E-09  0.347E-04    3.67      56.6  T
   4    -32.0749788 -0.717016E-09  0.181E-04    3.67     108.4  T
   5    -32.0749788 -0.497124E-09  0.539E-05    3.67     363.5  T
   6    -32.0749788 -0.253095E-10  0.269E-05    3.67     729.3  T
   7    -32.0749788 -0.113687E-11  0.530E-06    3.67    3702.9  T
   8    -32.0749788 -0.511591E-12  0.189E-06    3.67   10381.2  T
     SCC iter.                  ...        0 min,  0.074 sec
     gradient                   ...        0 min,  0.002 sec
 * total energy  :   -31.5546642 Eh     change       -0.9425095E-06 Eh
   gradient norm :     0.0001259 Eh/α   predicted    -0.3315282E-06 ( -64.82%)
   displ. norm   :     0.0148164 α      lambda       -0.6363703E-06
   maximum displ.:     0.0132373 α      in ANC's #1, #4, #8, ...

........................................................................
.............................. CYCLE   39 ..............................
........................................................................

 iter      E             dE          RMSdq      gap      omega  full diag
   1    -32.0749794 -0.320750E+02  0.640E-03    3.67       0.0  T
   2    -32.0749794 -0.341090E-08  0.369E-03    3.67       5.3  T
   3    -32.0749794  0.213781E-09  0.333E-04    3.67      58.9  T
   4    -32.0749794 -0.341259E-09  0.174E-04    3.67     112.6  T
   5    -32.0749794 -0.510873E-09  0.412E-05    3.67     475.6  T
   6    -32.0749794 -0.705569E-11  0.206E-05    3.67     950.6  T
   7    -32.0749794 -0.305533E-12  0.560E-06    3.67    3499.2  T
   8    -32.0749794 -0.774492E-12  0.143E-06    3.67   13724.5  T
     SCC iter.                  ...        0 min,  0.074 sec
     gradient                   ...        0 min,  0.002 sec
 * total energy  :   -31.5546651 Eh     change       -0.8846823E-06 Eh
   gradient norm :     0.0000815 Eh/α   predicted    -0.3203814E-06 ( -63.79%)
   displ. norm   :     0.0145315 α      lambda       -0.5718115E-06
   maximum displ.:     0.0129172 α      in ANC's #1, #4, #5, ...

........................................................................
.............................. CYCLE   40 ..............................
........................................................................

 iter      E             dE          RMSdq      gap      omega  full diag
   1    -32.0749739 -0.320750E+02  0.609E-03    3.67       0.0  T
   2    -32.0749739 -0.241369E-08  0.352E-03    3.67       5.6  T
   3    -32.0749739  0.477833E-09  0.308E-04    3.67      63.7  T
   4    -32.0749739 -0.629036E-09  0.163E-04    3.67     120.4  T
   5    -32.0749739 -0.428429E-09  0.418E-05    3.67     468.8  T
   6    -32.0749739 -0.657252E-11  0.211E-05    3.67     931.0  T
   7    -32.0749739 -0.952127E-12  0.552E-06    3.67    3554.1  T
   8    -32.0749739 -0.632383E-12  0.176E-06    3.67   11149.6  T
     SCC iter.                  ...        0 min,  0.079 sec
     gradient                   ...        0 min,  0.002 sec
 * total energy  :   -31.5546659 Eh     change       -0.7998545E-06 Eh
   gradient norm :     0.0000767 Eh/α   predicted    -0.2866203E-06 ( -64.17%)
   displ. norm   :     0.0132130 α      lambda       -0.4825206E-06
   maximum displ.:     0.0119270 α      in ANC's #1, #5, #4, ...

........................................................................
.............................. CYCLE   41 ..............................
........................................................................

 iter      E             dE          RMSdq      gap      omega  full diag
   1    -32.0749755 -0.320750E+02  0.547E-03    3.67       0.0  T
   2    -32.0749755 -0.170200E-08  0.318E-03    3.67       6.2  T
   3    -32.0749755  0.234678E-09  0.241E-04    3.67      81.5  T
   4    -32.0749755 -0.511477E-09  0.109E-04    3.67     179.4  T
   5    -32.0749755 -0.149726E-09  0.374E-05    3.67     524.0  T
   6    -32.0749755 -0.762412E-11  0.165E-05    3.67    1188.6  T
   7    -32.0749755 -0.163425E-12  0.450E-06    3.67    4359.5  T
   8    -32.0749755 -0.440536E-12  0.141E-06    3.67   13889.7  T
     SCC iter.                  ...        0 min,  0.073 sec
     gradient                   ...        0 min,  0.002 sec
 * total energy  :   -31.5546666 Eh     change       -0.6868920E-06 Eh
   gradient norm :     0.0000858 Eh/α   predicted    -0.2418157E-06 ( -64.80%)
   displ. norm   :     0.0115478 α      lambda       -0.4125628E-06
   maximum displ.:     0.0106586 α      in ANC's #1, #5, #6, ...

........................................................................
.............................. CYCLE   42 ..............................
........................................................................

 iter      E             dE          RMSdq      gap      omega  full diag
   1    -32.0749692 -0.320750E+02  0.470E-03    3.67       0.0  T
   2    -32.0749692 -0.935458E-09  0.274E-03    3.67       7.2  T
   3    -32.0749692  0.231779E-09  0.200E-04    3.67      98.2  T
   4    -32.0749692 -0.447741E-09  0.864E-05    3.67     227.0  T
   5    -32.0749692 -0.895710E-10  0.312E-05    3.67     627.8  T
   6    -32.0749692 -0.461853E-11  0.141E-05    3.67    1387.5  T
   7    -32.0749692 -0.362377E-12  0.354E-06    3.67    5532.6  T
   8    -32.0749692 -0.291323E-12  0.126E-06    3.67   15580.3  T
     SCC iter.                  ...        0 min,  0.073 sec
     gradient                   ...        0 min,  0.002 sec
 * total energy  :   -31.5546672 Eh     change       -0.6000227E-06 Eh
   gradient norm :     0.0000860 Eh/α   predicted    -0.2069474E-06 ( -65.51%)
   displ. norm   :     0.0104510 α      lambda       -0.3829668E-06
   maximum displ.:     0.0097154 α      in ANC's #1, #5, #6, ...
 * RMSD in coord.:     0.0932584 α      energy gain  -0.4479185E-04 Eh

generating ANC from model Hessian ...
Using Lindh-Hessian (1995)
 Shifting diagonal of input Hessian by   9.167277048939338E-003
 Lowest  eigenvalues of input Hessian
    0.000000    0.000000    0.000000    0.000000    0.000000    0.000000
    0.010000    0.010206    0.010794    0.011037    0.011271    0.012893
    0.015498    0.017360    0.017925    0.018836    0.020237    0.024165
 Highest eigenvalues
    1.364011    1.555026    1.573457    1.882258    1.988659    2.004603
 

........................................................................
.............................. CYCLE   43 ..............................
........................................................................

 iter      E             dE          RMSdq      gap      omega  full diag
   1    -32.0749751 -0.320750E+02  0.420E-03    3.67       0.0  T
   2    -32.0749751 -0.844196E-09  0.246E-03    3.67       8.0  T
   3    -32.0749751  0.458158E-10  0.168E-04    3.67     116.6  T
   4    -32.0749751 -0.251127E-09  0.645E-05    3.67     304.1  T
   5    -32.0749751 -0.308802E-10  0.293E-05    3.67     669.7  T
   6    -32.0749751 -0.694200E-11  0.118E-05    3.67    1656.0  T
   7    -32.0749751 -0.163425E-12  0.233E-06    3.67    8420.6  T
   8    -32.0749751 -0.284217E-13  0.927E-07    3.67   21162.4  T
     SCC iter.                  ...        0 min,  0.073 sec
     gradient                   ...        0 min,  0.002 sec
 * total energy  :   -31.5546677 Eh     change       -0.5559819E-06 Eh
   gradient norm :     0.0000780 Eh/α   predicted     0.0000000E+00 (-100.00%)
   displ. norm   :     0.0084245 α      lambda       -0.1007726E-07
   maximum displ.:     0.0080788 α      in ANC's #1, #4, #9, ...

........................................................................
.............................. CYCLE   44 ..............................
........................................................................

 iter      E             dE          RMSdq      gap      omega  full diag
   1    -32.0749783 -0.320750E+02  0.359E-03    3.67       0.0  T
   2    -32.0749783 -0.714685E-09  0.210E-03    3.67       9.4  T
   3    -32.0749783  0.721556E-10  0.154E-04    3.67     127.1  T
   4    -32.0749783 -0.167290E-09  0.790E-05    3.67     248.2  T
   5    -32.0749783 -0.103853E-09  0.185E-05    3.67    1058.8  T
   6    -32.0749783 -0.147082E-11  0.102E-05    3.67    1929.4  T
   7    -32.0749783 -0.298428E-12  0.292E-06    3.67    6710.8  T
   8    -32.0749783 -0.127898E-12  0.943E-07    3.67   20788.2  T
     SCC iter.                  ...        0 min,  0.074 sec
     gradient                   ...        0 min,  0.002 sec
 * total energy  :   -31.5546682 Eh     change       -0.4802966E-06 Eh
   gradient norm :     0.0000691 Eh/α   predicted    -0.1672802E-06 ( -65.17%)
   displ. norm   :     0.0106860 α      lambda       -0.4009977E-06
   maximum displ.:     0.0095600 α      in ANC's #1, #4, #11, ...

........................................................................
.............................. CYCLE   45 ..............................
........................................................................

 iter      E             dE          RMSdq      gap      omega  full diag
   1    -32.0749723 -0.320750E+02  0.413E-03    3.67       0.0  T
   2    -32.0749723 -0.109805E-08  0.241E-03    3.67       8.2  T
   3    -32.0749723 -0.315907E-10  0.176E-04    3.67     111.2  T
   4    -32.0749723 -0.168299E-09  0.674E-05    3.67     290.8  T
   5    -32.0749723 -0.395062E-10  0.340E-05    3.67     576.7  T
   6    -32.0749723 -0.134222E-10  0.147E-05    3.67    1330.7  T
   7    -32.0749723 -0.298428E-12  0.279E-06    3.67    7020.2  T
   8    -32.0749723 -0.710543E-14  0.151E-06    3.67   12985.4  T
     SCC iter.                  ...        0 min,  0.073 sec
     gradient                   ...        0 min,  0.002 sec
 * total energy  :   -31.5546688 Eh     change       -0.5735055E-06 Eh
   gradient norm :     0.0000643 Eh/α   predicted    -0.2005539E-06 ( -65.03%)
   displ. norm   :     0.0127274 α      lambda       -0.4372833E-06
   maximum displ.:     0.0112604 α      in ANC's #1, #4, #8, ...

........................................................................
.............................. CYCLE   46 ..............................
........................................................................

 iter      E             dE          RMSdq      gap      omega  full diag
   1    -32.0749735 -0.320750E+02  0.485E-03    3.67       0.0  T
   2    -32.0749735 -0.119665E-08  0.284E-03    3.67       6.9  T
   3    -32.0749735 -0.618741E-10  0.180E-04    3.67     109.1  T
   4    -32.0749735 -0.181750E-09  0.816E-05    3.67     240.2  T
   5    -32.0749735 -0.797584E-10  0.372E-05    3.67     527.8  T
   6    -32.0749735 -0.135572E-10  0.171E-05    3.67    1145.7  T
   7    -32.0749735 -0.561329E-12  0.307E-06    3.67    6379.0  T
   8    -32.0749735 -0.497380E-13  0.155E-06    3.67   12686.9  T
     SCC iter.                  ...        0 min,  0.073 sec
     gradient                   ...        0 min,  0.002 sec
 * total energy  :   -31.5546694 Eh     change       -0.6284367E-06 Eh
   gradient norm :     0.0000588 Eh/α   predicted    -0.2207913E-06 ( -64.87%)
   displ. norm   :     0.0126577 α      lambda       -0.4131167E-06
   maximum displ.:     0.0113537 α      in ANC's #1, #4, #8, ...

........................................................................
.............................. CYCLE   47 ..............................
........................................................................

 iter      E             dE          RMSdq      gap      omega  full diag
   1    -32.0749731 -0.320750E+02  0.492E-03    3.67       0.0  T
   2    -32.0749731 -0.931912E-09  0.287E-03    3.67       6.8  T
   3    -32.0749731 -0.440892E-10  0.157E-04    3.67     124.6  T
   4    -32.0749731 -0.146052E-09  0.824E-05    3.67     238.1  T
   5    -32.0749731 -0.973301E-10  0.313E-05    3.67     625.8  T
   6    -32.0749731 -0.604672E-11  0.135E-05    3.67    1453.0  T
   7    -32.0749731 -0.376588E-12  0.262E-06    3.67    7492.8  T
   8    -32.0749731 -0.120792E-12  0.125E-06    3.67   15718.6  T
     SCC iter.                  ...        0 min,  0.073 sec
     gradient                   ...        0 min,  0.002 sec
 * total energy  :   -31.5546700 Eh     change       -0.5833684E-06 Eh
   gradient norm :     0.0000574 Eh/α   predicted    -0.2069525E-06 ( -64.52%)
   displ. norm   :     0.0114676 α      lambda       -0.3567094E-06
   maximum displ.:     0.0106462 α      in ANC's #1, #4, #8, ...

........................................................................
.............................. CYCLE   48 ..............................
........................................................................

 iter      E             dE          RMSdq      gap      omega  full diag
   1    -32.0749796 -0.320750E+02  0.461E-03    3.67       0.0  T
   2    -32.0749796 -0.103513E-08  0.270E-03    3.67       7.3  T
   3    -32.0749796 -0.616254E-10  0.167E-04    3.67     117.4  T
   4    -32.0749796 -0.164370E-09  0.763E-05    3.67     256.9  T
   5    -32.0749796 -0.601545E-10  0.323E-05    3.67     608.0  T
   6    -32.0749796 -0.802913E-11  0.147E-05    3.67    1330.9  T
   7    -32.0749796 -0.362377E-12  0.261E-06    3.67    7515.9  T
   8    -32.0749796 -0.781597E-13  0.117E-06    3.67   16792.6  T
     SCC iter.                  ...        0 min,  0.073 sec
     gradient                   ...        0 min,  0.002 sec
 * total energy  :   -31.5546705 Eh     change       -0.5179666E-06 Eh
   gradient norm :     0.0000532 Eh/α   predicted    -0.1788067E-06 ( -65.48%)
   displ. norm   :     0.0096485 α      lambda       -0.2968017E-06
   maximum displ.:     0.0092346 α      in ANC's #1, #6, #8, ...

........................................................................
.............................. CYCLE   49 ..............................
........................................................................

 iter      E             dE          RMSdq      gap      omega  full diag
   1    -32.0749771 -0.320750E+02  0.404E-03    3.67       0.0  T
   2    -32.0749771 -0.620737E-09  0.236E-03    3.67       8.3  T
   3    -32.0749771  0.565450E-10  0.147E-04    3.67     133.8  T
   4    -32.0749771 -0.199464E-09  0.697E-05    3.67     281.2  T
   5    -32.0749771 -0.651923E-10  0.255E-05    3.67     769.0  T
   6    -32.0749771 -0.400746E-11  0.117E-05    3.67    1678.1  T
   7    -32.0749771 -0.142109E-12  0.232E-06    3.67    8451.5  T
   8    -32.0749771 -0.142109E-12  0.787E-07    3.67   24903.7  T
     SCC iter.                  ...        0 min,  0.073 sec
     gradient                   ...        0 min,  0.002 sec
 * total energy  :   -31.5546710 Eh     change       -0.4411366E-06 Eh
   gradient norm :     0.0000516 Eh/α   predicted    -0.1493327E-06 ( -66.15%)
   displ. norm   :     0.0084460 α      lambda       -0.2665737E-06
   maximum displ.:     0.0082003 α      in ANC's #1, #6, #3, ...

........................................................................
.............................. CYCLE   50 ..............................
........................................................................

 iter      E             dE          RMSdq      gap      omega  full diag
   1    -32.0749799 -0.320750E+02  0.369E-03    3.67       0.0  T
   2    -32.0749800 -0.598575E-09  0.215E-03    3.67       9.1  T
   3    -32.0749800  0.975859E-10  0.151E-04    3.67     129.6  T
   4    -32.0749800 -0.233470E-09  0.635E-05    3.67     308.7  T
   5    -32.0749800 -0.417302E-10  0.257E-05    3.67     764.4  T
   6    -32.0749800 -0.439826E-11  0.111E-05    3.67    1764.0  T
   7    -32.0749800 -0.852651E-13  0.257E-06    3.67    7636.5  T
[...]
         :: total charge               0.000000000000 e     ::
         :::::::::::::::::::::::::::::::::::::::::::::::::::::

           ------------------------------------------------- 
          |                Numerical Hessian                |
           ------------------------------------------------- 
step length          :   0.00500
SCC accuracy         :   0.30000
Hessian scale factor :   1.00000
frozen atoms in %    :   0.00000    0
RMS gradient         :   0.00004
estimated CPU  time      1.12 min
estimated wall time      0.13 min

writing file <hessian>.

 projected vibrational frequencies (cm⁻¹)
eigval :       -0.00    -0.00    -0.00     0.00     0.00     0.00
eigval :       28.03    72.85    79.66   100.44   121.09   177.03
eigval :      204.23   217.15   245.22   265.00   271.95   325.92
eigval :      362.74   441.04   456.86   585.96   655.28   660.55
eigval :      686.00   703.27   734.28   740.92   789.81   874.90
eigval :      898.97   926.90   932.44   969.43   971.22  1010.20
eigval :     1014.70  1018.40  1070.90  1073.84  1083.24  1118.48
eigval :     1120.48  1181.60  1198.87  1222.52  1231.85  1252.09
eigval :     1255.48  1278.30  1315.31  1407.82  1411.26  1423.56
eigval :     1444.35  1451.51  1457.83  1494.72  1497.61  1502.96
eigval :     1507.79  1579.64  1589.42  2924.32  2934.89  2945.37
eigval :     2949.46  3011.77  3012.69  3026.00  3028.73  3033.31
eigval :     3036.76  3063.18  3066.17  3074.45  3079.85  3088.21
           -------------------------------------------------
          |                Property Printout                |
           -------------------------------------------------

    * Orbital Energies and Occupations

         #    Occupation            Energy/Eh            Energy/eV
      -------------------------------------------------------------
         1        2.0000           -0.6577515             -17.8983
       ...           ...                  ...                  ...
        18        2.0000           -0.4778578             -13.0032
        19        2.0000           -0.4773213             -12.9886
        20        2.0000           -0.4631814             -12.6038
        21        2.0000           -0.4599448             -12.5157
        22        2.0000           -0.4522988             -12.3077
        23        2.0000           -0.4461808             -12.1412
        24        2.0000           -0.4392762             -11.9533
        25        2.0000           -0.4230047             -11.5105
        26        2.0000           -0.4165163             -11.3340
        27        2.0000           -0.4045986             -11.0097
        28        2.0000           -0.4039626             -10.9924
        29        2.0000           -0.3967505             -10.7961
        30        2.0000           -0.3669116              -9.9842 (HOMO)
        31                         -0.2321870              -6.3181 (LUMO)
        32                         -0.2227155              -6.0604
        33                         -0.1601121              -4.3569
        34                         -0.1502732              -4.0891
        35                         -0.0928883              -2.5276
        36                         -0.0064848              -0.1765
        37                          0.0723400               1.9685
        38                          0.0835338               2.2731
        39                          0.1012764               2.7559
        40                          0.1332936               3.6271
        41                          0.1404668               3.8223
       ...                                ...                  ...
        64                          0.7799731              21.2241
      -------------------------------------------------------------
                  HL-Gap            0.1347246 Eh            3.6660 eV
             Fermi-level           -0.2995493 Eh           -8.1512 eV

     #   Z          covCN         q      C6AA      α(0)
     1  15 P        3.037    -0.109   165.197    23.089
     2   6 C        3.747    -0.047    21.486     6.612
     3   1 H        0.925     0.041     2.433     2.439
     4   1 H        0.925     0.040     2.443     2.444
     5   6 C        3.818    -0.098    22.358     6.729
     6   1 H        0.925     0.038     2.472     2.459
     7   1 H        0.925     0.041     2.435     2.440
     8   1 H        0.925     0.031     2.579     2.511
     9   6 C        2.916     0.004    27.934     8.667
    10   6 C        3.015    -0.031    28.749     8.795
    11   6 C        2.962    -0.031    28.769     8.798
    12   6 C        2.918    -0.029    28.737     8.791
    13   6 C        2.919    -0.031    28.769     8.796
    14   6 C        2.920    -0.029    28.736     8.791
    15   1 H        0.925     0.039     2.467     2.456
    16   1 H        0.926     0.033     2.547     2.495
    17   1 H        0.926     0.031     2.577     2.510
    18   1 H        0.926     0.029     2.605     2.524
    19   1 H        0.926     0.030     2.592     2.517
    20   6 C        3.747    -0.045    21.449     6.606
    21   1 H        0.926     0.038     2.472     2.459
    22   1 H        0.925     0.042     2.424     2.435
    23   6 C        3.805    -0.096    22.329     6.727
    24   1 H        0.925     0.041     2.434     2.440
    25   1 H        0.925     0.038     2.476     2.461
    26   1 H        0.925     0.032     2.552     2.498

 Mol. C6AA /au·bohr⁶  :       7598.789258
 Mol. C8AA /au·bohr⁸  :     202565.352082
 Mol. α(0) /au        :        139.489701


Wiberg/Mayer (AO) data.
largest (>0.10) Wiberg bond orders for each atom

 ---------------------------------------------------------------------------
     #   Z sym  total        # sym  WBO       # sym  WBO       # sym  WBO
 ---------------------------------------------------------------------------
     1  15 P    3.337 --     2 C    1.026    20 C    1.019     9 C    1.007
     2   6 C    3.995 --     1 P    1.026     5 C    1.016     4 H    0.959
                             3 H    0.954
     3   1 H    0.998 --     2 C    0.954
     4   1 H    0.998 --     2 C    0.959
     5   6 C    3.996 --     2 C    1.016     7 H    0.985     8 H    0.985
                             6 H    0.983
     6   1 H    0.999 --     5 C    0.983
     7   1 H    0.998 --     5 C    0.985
     8   1 H    0.999 --     5 C    0.985
     9   6 C    3.983 --    10 C    1.407    11 C    1.400     1 P    1.007
                            14 C    0.108
    10   6 C    3.991 --    12 C    1.444     9 C    1.407    15 H    0.964
                            13 C    0.109
    11   6 C    3.992 --    13 C    1.448     9 C    1.400    16 H    0.963
                            12 C    0.110
    12   6 C    3.992 --    10 C    1.444    14 C    1.439    17 H    0.970
                            11 C    0.110
    13   6 C    3.993 --    11 C    1.448    14 C    1.434    18 H    0.970
                            10 C    0.109
    14   6 C    3.990 --    12 C    1.439    13 C    1.434    19 H    0.971
                             9 C    0.108
    15   1 H    0.998 --    10 C    0.964
    16   1 H    0.999 --    11 C    0.963
    17   1 H    0.999 --    12 C    0.970
    18   1 H    0.999 --    13 C    0.970
    19   1 H    0.998 --    14 C    0.971
    20   6 C    3.995 --     1 P    1.019    23 C    1.017    21 H    0.959
                            22 H    0.952
    21   1 H    0.998 --    20 C    0.959
    22   1 H    0.998 --    20 C    0.952
    23   6 C    3.996 --    20 C    1.017    24 H    0.985    26 H    0.984
                            25 H    0.983
    24   1 H    0.998 --    23 C    0.985
    25   1 H    0.999 --    23 C    0.983
    26   1 H    0.998 --    23 C    0.984
 ---------------------------------------------------------------------------

Topologies differ in total number of bonds
Writing topology from bond orders to xtbtopo.mol

molecular dipole:
                 x           y           z       tot (Debye)
 q only:       -0.101       0.244      -0.039
   full:       -0.389       0.443      -0.248       1.626
molecular quadrupole (traceless):
                xx          xy          yy          xz          yz          zz
 q only:       -0.969       0.975       0.248       0.900      -1.040       0.721
  q+dip:       -2.852       0.179       0.105       3.818      -0.981       2.748
   full:       -3.659       1.998      -0.096       2.367      -1.766       3.755

           -------------------------------------------------
          |                Geometry Summary                 |
           -------------------------------------------------

      molecular mass/u    :      166.2002322
   center of mass at/Å    :        0.9017806      -0.5268616      -3.8686972
  moments of inertia/u·Å² :        0.2861080E+03   0.9238360E+03   0.9979145E+03
rotational constants/cm⁻¹ :        0.5892052E-01   0.1824743E-01   0.1689286E-01

 * 23 selected distances

     #   Z          #   Z                                           value/Å
     2   6 C        3   1 H                                       1.0933319
     2   6 C        4   1 H                                       1.0934108
     2   6 C        5   6 C                                       1.5248854 (max)
     5   6 C        6   1 H                                       1.0877626
     5   6 C        7   1 H                                       1.0879388
     5   6 C        8   1 H                                       1.0891503
     9   6 C       10   6 C                                       1.3905127
     9   6 C       11   6 C                                       1.3901565
    10   6 C       12   6 C                                       1.3831018
    11   6 C       13   6 C                                       1.3830511
    12   6 C       14   6 C                                       1.3843848
    13   6 C       14   6 C                                       1.3850827
    10   6 C       15   1 H                                       1.0813930
    11   6 C       16   1 H                                       1.0804479
    12   6 C       17   1 H                                       1.0805078
    13   6 C       18   1 H                                       1.0809350
    14   6 C       19   1 H                                       1.0802854 (min)
    20   6 C       21   1 H                                       1.0942173
    20   6 C       22   1 H                                       1.0943285
    20   6 C       23   6 C                                       1.5217673
    23   6 C       24   1 H                                       1.0883346
    23   6 C       25   1 H                                       1.0878320
    23   6 C       26   1 H                                       1.0890563

 * 2 distinct bonds (by element types)

   Z      Z             #   av. dist./Å        max./Å        min./Å
   1 H    6 C          15     1.0872621     1.0943285     1.0802854
   6 C    6 C           8     1.4203678     1.5248854     1.3830511

           -------------------------------------------------
          |               Frequency Printout                |
           -------------------------------------------------
 projected vibrational frequencies (cm⁻¹)
eigval :       -0.00    -0.00    -0.00     0.00     0.00     0.00
eigval :       28.03    72.85    79.66   100.44   121.09   177.03
eigval :      204.23   217.15   245.22   265.00   271.95   325.92
eigval :      362.74   441.04   456.86   585.96   655.28   660.55
eigval :      686.00   703.27   734.28   740.92   789.81   874.90
eigval :      898.97   926.90   932.44   969.43   971.22  1010.20
eigval :     1014.70  1018.40  1070.90  1073.84  1083.24  1118.48
eigval :     1120.48  1181.60  1198.87  1222.52  1231.85  1252.09
eigval :     1255.48  1278.30  1315.31  1407.82  1411.26  1423.56
eigval :     1444.35  1451.51  1457.83  1494.72  1497.61  1502.96
eigval :     1507.79  1579.64  1589.42  2924.32  2934.89  2945.37
eigval :     2949.46  3011.77  3012.69  3026.00  3028.73  3033.31
eigval :     3036.76  3063.18  3066.17  3074.45  3079.85  3088.21
 reduced masses (amu)
   1: 13.44   2: 11.33   3: 13.38   4: 13.29   5: 12.00   6: 12.75   7: 10.80   8: 10.60
   9:  8.67  10:  7.01  11: 10.69  12:  3.65  13:  8.71  14:  6.13  15: 10.28  16: 10.27
  17: 10.01  18: 12.87  19:  8.83  20: 17.84  21: 13.94  22: 11.17  23: 13.19  24: 11.28
  25: 13.72  26: 15.64  27:  3.12  28:  4.53  29:  4.57  30:  3.30  31:  3.56  32:  4.19
  33:  2.99  34:  8.94  35:  4.52  36:  3.50  37:  4.04  38:  3.43  39:  9.52  40:  9.61
  41:  7.97  42:  5.76  43:  7.29  44:  1.34  45:  1.92  46:  3.54  47:  3.36  48:  4.20
  49:  4.23  50:  3.37  51: 11.96  52:  2.97  53:  2.90  54:  8.62  55:  2.51  56:  1.98
  57:  7.88  58:  1.53  59:  1.55  60:  1.55  61:  1.55  62: 11.46  63: 11.45  64:  1.89
  65:  1.79  66:  1.60  67:  1.67  68:  1.85  69:  1.82  70:  1.91  71:  1.92  72:  1.40
  73:  1.40  74:  1.78  75:  1.76  76:  1.82  77:  1.87  78:  1.92
 IR intensities (km·mol⁻¹)
   1:  0.02   2:  0.01   3:  0.08   4:  0.01   5:  0.31   6:  0.09   7:  0.24   8:  0.06
   9:  0.13  10:  0.28  11:  0.27  12:  0.14  13:  0.08  14:  0.05  15:  0.09  16:  0.79
  17:  0.03  18:  0.24  19:  0.05  20:  7.04  21:  8.36  22:  0.05  23:  5.42  24:  3.62
  25:  5.50  26: 51.30  27: 12.44  28:  4.61  29: 22.22  30:  0.07  31:  0.02  32:  0.03
  33:  0.01  34:  1.13  35:  2.60  36:  1.00  37:  0.96  38:  6.81  39:  2.13  40:  3.81
  41:  0.01  42:  1.14  43:  4.03  44:  0.02  45:  0.65  46:  1.06  47:  2.64  48:  7.89
  49:  6.18  50:  0.87  51:  0.65  52:  0.96  53:  3.35  54:  1.22  55:  0.49  56:  0.63
  57:  0.29  58:  0.68  59:  4.50  60:  1.50  61:  2.01  62:  0.32  63:  1.13  64: 15.45
  65: 27.65  66: 16.14  67: 16.13  68: 70.72  69: 36.79  70: 28.90  71: 28.96  72: 19.20
  73: 23.84  74: 12.29  75:  5.26  76: 19.34  77: 80.22  78: 57.47
 Raman intensities (Ä⁴*amu⁻¹)
   1:  0.00   2:  0.00   3:  0.00   4:  0.00   5:  0.00   6:  0.00   7:  0.00   8:  0.00
   9:  0.00  10:  0.00  11:  0.00  12:  0.00  13:  0.00  14:  0.00  15:  0.00  16:  0.00
  17:  0.00  18:  0.00  19:  0.00  20:  0.00  21:  0.00  22:  0.00  23:  0.00  24:  0.00
  25:  0.00  26:  0.00  27:  0.00  28:  0.00  29:  0.00  30:  0.00  31:  0.00  32:  0.00
  33:  0.00  34:  0.00  35:  0.00  36:  0.00  37:  0.00  38:  0.00  39:  0.00  40:  0.00
  41:  0.00  42:  0.00  43:  0.00  44:  0.00  45:  0.00  46:  0.00  47:  0.00  48:  0.00
  49:  0.00  50:  0.00  51:  0.00  52:  0.00  53:  0.00  54:  0.00  55:  0.00  56:  0.00
  57:  0.00  58:  0.00  59:  0.00  60:  0.00  61:  0.00  62:  0.00  63:  0.00  64:  0.00
  65:  0.00  66:  0.00  67:  0.00  68:  0.00  69:  0.00  70:  0.00  71:  0.00  72:  0.00
  73:  0.00  74:  0.00  75:  0.00  76:  0.00  77:  0.00  78:  0.00
 output can be read by thermo (or use thermo option).
 writing <g98.out> molden fake output.
 recommended (thermochemical) frequency scaling factor: 1.0
           -------------------------------------------------
          |             Thermodynamic Functions             |
           -------------------------------------------------

Refinement of some symmetry elements was terminated before convergence was reached.
Some symmetry elements may remain unidentified.
Molecule has no symmetry elements
It seems to be the C1 point group
c1  symmetry found (for desy threshold:  0.10E+00) used in thermo

          ...................................................
          :                      SETUP                      :
          :.................................................:
          :  # frequencies                          72      :
          :  # imaginary freq.                       0      :
          :  linear?                             false      :
          :  only rotor calc.                    false      :
          :  symmetry                               c1      :
          :  rotational number                       1      :
          :  scaling factor                  1.0000000      :
          :  rotor cutoff                   50.0000000 cm⁻¹ :
          :  imag. cutoff                  -20.0000000 cm⁻¹ :
          :.................................................:

    mode    ω/cm⁻¹     T·S(HO)/kcal·mol⁻¹    T·S(FR)/kcal·mol⁻¹   T·S(vib)
   ------------------------------------------------------------------------
       1     28.03    -1.77814 (  8.99%)    -1.22772 ( 91.01%)    -1.27722
       2     72.85    -1.21489 ( 81.84%)    -0.94495 ( 18.16%)    -1.16587
       3     79.66    -1.16254 ( 86.57%)    -0.91849 ( 13.43%)    -1.12976
       4    100.44    -1.02732 ( 94.22%)    -0.84983 (  5.78%)    -1.01706
       5    121.09    -0.91915 ( 97.18%)    -0.79446 (  2.82%)    -0.91563
       6    177.03    -0.70349 ( 99.37%)    -0.68198 (  0.63%)    -0.70335
       7    204.23    -0.62451 ( 99.64%)    -0.63963 (  0.36%)    -0.62457
       8    217.15    -0.59116 ( 99.72%)    -0.62147 (  0.28%)    -0.59124
       9    245.22    -0.52613 ( 99.83%)    -0.58545 (  0.17%)    -0.52624
      10    265.00    -0.48556 ( 99.87%)    -0.56248 (  0.13%)    -0.48566
      11    271.95    -0.47221 ( 99.89%)    -0.55481 (  0.11%)    -0.47230
   ------------------------------------------------------------------------

   temp. (K)  partition function   enthalpy   heat capacity  entropy
                                   cal/mol     cal/K/mol   cal/K/mol   J/K/mol
 298.15  VIB  0.175E+05             6202.071     39.613     38.216
         ROT  0.124E+07              888.752      2.981     30.864
         INT  0.217E+11             7090.824     42.594     69.080
         TR   0.207E+28             1481.254      4.968     41.214
         TOT                        8572.0776    47.5620   110.2937   461.4688

       T/K    H(0)-H(T)+PV         H(T)/Eh          T*S/Eh         G(T)/Eh
   ------------------------------------------------------------------------
    298.15    0.136605E-01    0.232340E+00    0.524041E-01    0.179936E+00
   ------------------------------------------------------------------------

         :::::::::::::::::::::::::::::::::::::::::::::::::::::
         ::                  THERMODYNAMIC                  ::
         :::::::::::::::::::::::::::::::::::::::::::::::::::::
         :: total free energy         -31.374740730686 Eh   ::
         ::.................................................::
         :: total energy              -31.554676270749 Eh   ::
         :: zero point energy           0.218679153082 Eh   ::
         :: G(RRHO) w/o ZPVE           -0.038743613019 Eh   ::
         :: G(RRHO) contrib.            0.179935540063 Eh   ::
         :::::::::::::::::::::::::::::::::::::::::::::::::::::

optimized geometry written to: xtbopt.xyz


           -------------------------------------------------
          | TOTAL ENERGY              -31.554676270749 Eh   |
          | TOTAL ENTHALPY            -31.322336642560 Eh   |
          | TOTAL FREE ENERGY         -31.374740730686 Eh   |
          | GRADIENT NORM               0.000035045530 Eh/α |
          | HOMO-LUMO GAP               3.666042122360 eV   |
           -------------------------------------------------

------------------------------------------------------------------------
 * finished run on 2025/07/14 at 11:27:23.332     
------------------------------------------------------------------------
 total:
 * wall-time:     0 d,  0 h,  0 min,  8.732 sec
 *  cpu-time:     0 d,  0 h,  1 min, 31.544 sec
 * ratio c/w:    10.484 speedup
 SCF:
 * wall-time:     0 d,  0 h,  0 min,  0.088 sec
 *  cpu-time:     0 d,  0 h,  0 min,  1.050 sec
 * ratio c/w:    11.953 speedup
 ANC optimizer:
 * wall-time:     0 d,  0 h,  0 min,  5.324 sec
 *  cpu-time:     0 d,  0 h,  1 min,  3.727 sec
 * ratio c/w:    11.971 speedup
 analytical hessian:
 * wall-time:     0 d,  0 h,  0 min,  3.310 sec
 *  cpu-time:     0 d,  0 h,  0 min, 26.664 sec
 * ratio c/w:     8.055 speedup

