      -----------------------------------------------------------      
     |                   =====================                   |     
     |                           x T B                           |     
     |                   =====================                   |     
     |                         S. Grimme                         |     
     |          Mulliken Center for Theoretical Chemistry        |     
     |                    University of Bonn                     |     
      -----------------------------------------------------------      

   * xtb version 6.7.0 (08769fc) compiled by 'albert@albert-system' on 2024-03-04

   xtb is free software: you can redistribute it and/or modify it under
   the terms of the GNU Lesser General Public License as published by
   the Free Software Foundation, either version 3 of the License, or
   (at your option) any later version.
   
   xtb is distributed in the hope that it will be useful,
   but WITHOUT ANY WARRANTY; without even the implied warranty of
   MERCHANTABILITY or FITNESS FOR A PARTICULAR PURPOSE.  See the
   GNU Lesser General Public License for more details.
   
   Cite this work as:
   * C. Bannwarth, E. Caldeweyher, S. Ehlert, A. Hansen, P. Pracht,
     J. Seibert, S. Spicher, S. Grimme, WIREs Comput. Mol. Sci., 2020, 11,
     e01493. DOI: 10.1002/wcms.1493
   
   for GFN2-xTB:
   * C. Bannwarth, S. Ehlert and S. Grimme., J. Chem. Theory Comput., 2019,
     15, 1652-1671. DOI: 10.1021/acs.jctc.8b01176
   for GFN1-xTB:
   * S. Grimme, C. Bannwarth, P. Shushkov, J. Chem. Theory Comput., 2017,
     13, 1989-2009. DOI: 10.1021/acs.jctc.7b00118
   for GFN0-xTB:
   * P. Pracht, E. Caldeweyher, S. Ehlert, S. Grimme, ChemRxiv, 2019, preprint.
     DOI: 10.26434/chemrxiv.8326202.v1
   for GFN-FF:
   * S. Spicher and S. Grimme, Angew. Chem. Int. Ed., 2020, 59, 15665-15673.
     DOI: 10.1002/anie.202004239
   
   for ALPB and GBSA implicit solvation:
   * S. Ehlert, M. Stahn, S. Spicher, S. Grimme, J. Chem. Theory Comput.,
     2021, 17, 4250-4261. DOI: 10.1021/acs.jctc.1c00471
   
   for ddCOSMO and CPCM-X implicit solvation:
   * M. Stahn, S. Ehlert, S. Grimme, J. Phys. Chem. A,
     2023, XX, XXXX-XXXX. DOI: 10.1021/acs.jpca.3c04382
   
   for DFT-D4:
   * E. Caldeweyher, C. Bannwarth and S. Grimme, J. Chem. Phys., 2017,
     147, 034112. DOI: 10.1063/1.4993215
   * E. Caldeweyher, S. Ehlert, A. Hansen, H. Neugebauer, S. Spicher,
     C. Bannwarth and S. Grimme, J. Chem. Phys., 2019, 150, 154122.
     DOI: 10.1063/1.5090222
   * E. Caldeweyher, J.-M. Mewes, S. Ehlert and S. Grimme, Phys. Chem. Chem. Phys.
     2020, 22, 8499-8512. DOI: 10.1039/D0CP00502A
   
   for sTDA-xTB:
   * S. Grimme and C. Bannwarth, J. Chem. Phys., 2016, 145, 054103.
     DOI: 10.1063/1.4959605
   
   in the mass-spec context:
   * V. Asgeirsson, C. Bauer and S. Grimme, Chem. Sci., 2017, 8, 4879.
     DOI: 10.1039/c7sc00601b
   * J. Koopman and S. Grimme, ACS Omega 2019, 4, 12, 15120-15133.
     DOI: 10.1021/acsomega.9b02011
   
   for metadynamics refer to:
   * S. Grimme, J. Chem. Theory Comput., 2019, 155, 2847-2862
     DOI: 10.1021/acs.jctc.9b00143
   
   for SPH calculations refer to:
   * S. Spicher and S. Grimme, J. Chem. Theory Comput., 2021, 17, 1701-1714
     DOI: 10.1021/acs.jctc.0c01306
   
   for ONIOM refer to:
   * C. Plett, A. Katbashev, S. Ehlert, S. Grimme, M. Bursch,
     Phys. Chem. Chem. Phys., 2023, 25, 17860-17868. DOI: 10.1039/D3CP02178E
   
   for DIPRO refer to:
   * J. Kohn, N. Gildemeister, S. Grimme, D. Fazzi, A. Hansen,
     J. Chem. Phys., 2023, just accepted.
   
   for PTB refer to:
   * S. Grimme, M. Mueller, A. Hansen, J. Chem. Phys., 2023, 158, 124111.
     DOI: 10.1063/5.0137838
   
   with help from (in alphabetical order)
   P. Atkinson, C. Bannwarth, F. Bohle, G. Brandenburg, E. Caldeweyher
   M. Checinski, S. Dohm, S. Ehlert, S. Ehrlich, I. Gerasimov, C. Hölzer
   A. Katbashev, J. Kohn, J. Koopman, C. Lavigne, S. Lehtola, F. März, M. Müller,
   F. Musil, H. Neugebauer, J. Pisarek, C. Plett, P. Pracht, F. Pultar,
   J. Seibert, P. Shushkov, S. Spicher, M. Stahn, M. Steiner, T. Strunk,
   J. Stückrath, T. Rose, and J. Unsleber
   
 * started run on 2025/07/14 at 11:37:26.107     
   ID    Z sym.   atoms
    1   15 P      1
    2    6 C      2, 5, 9-14, 20, 23
    3    1 H      3, 4, 6-8, 15-19, 21, 22, 24-26

           -------------------------------------------------
          |                Calculation Setup                |
           -------------------------------------------------

          program call               : /home/minenky/programs/xtb/xtb-dist/bin/xtb m1_00_PEt2Ph-PBE0-D3-TZ-uniMM_67.xyz --charge 0 --T --ohess extreme --cycles 5000 --acc 0.01 --iterations 5000
          coordinate file            : m1_00_PEt2Ph-PBE0-D3-TZ-uniMM_67.xyz
          omp threads                :                    12

########################################################################
[WARNING] Please study the warnings concerning your input carefully
-1- prog_main_parseArguments: Unknown option '--T' provided
########################################################################

           -------------------------------------------------
          |                 G F N 2 - x T B                 |
           -------------------------------------------------

        Reference                      10.1021/acs.jctc.8b01176
      * Hamiltonian:
        H0-scaling (s, p, d)           1.850000    2.230000    2.230000
        zeta-weighting                 0.500000
      * Dispersion:
        s8                             2.700000
        a1                             0.520000
        a2                             5.000000
        s9                             5.000000
      * Repulsion:
        kExp                           1.500000    1.000000
        rExp                           1.000000
      * Coulomb:
        alpha                          2.000000
        third order                    shell-resolved
        anisotropic                    true
        a3                             3.000000
        a5                             4.000000
        cn-shift                       1.200000
        cn-exp                         4.000000
        max-rad                        5.000000


          ...................................................
          :                      SETUP                      :
          :.................................................:
          :  # basis functions                  65          :
          :  # atomic orbitals                  64          :
          :  # shells                           38          :
          :  # electrons                        60          :
          :  max. iterations                  5000          :
          :  Hamiltonian                  GFN2-xTB          :
          :  restarted?                      false          :
          :  GBSA solvation                  false          :
          :  PC potential                    false          :
          :  electronic temp.          300.0000000     K    :
          :  accuracy                    0.0100000          :
          :  -> integral cutoff          0.4500000E+02      :
          :  -> integral neglect         0.1000000E-09      :
          :  -> SCF convergence          0.1000000E-07 Eh   :
          :  -> wf. convergence          0.1000000E-05 e    :
          :  Broyden damping             0.4000000          :
          :  net charge                          0          :
          :  unpaired electrons                  0          :
          ...................................................

 iter      E             dE          RMSdq      gap      omega  full diag
   1    -32.0025178 -0.320025E+02  0.359E+00    3.88       0.0  T
   2    -32.0443029 -0.417851E-01  0.212E+00    3.34       1.0  T
   3    -32.0439899  0.313025E-03  0.912E-01    3.03       1.0  T
   4    -32.0454470 -0.145712E-02  0.287E-01    3.04       1.0  T
   5    -32.0467256 -0.127860E-02  0.121E-01    3.09       1.0  T
   6    -32.0469638 -0.238276E-03  0.433E-02    3.08       1.0  T
   7    -32.0469801 -0.162799E-04  0.167E-02    3.09       1.2  T
   8    -32.0469808 -0.689059E-06  0.687E-03    3.09       2.9  T
   9    -32.0469813 -0.513196E-06  0.145E-03    3.09      13.5  T
  10    -32.0469814 -0.270595E-07  0.590E-04    3.09      33.2  T
  11    -32.0469814 -0.354149E-09  0.285E-04    3.09      68.8  T
  12    -32.0469814 -0.520096E-09  0.559E-05    3.09     351.0  T
  13    -32.0469814 -0.124771E-10  0.288E-05    3.09     680.5  T
  14    -32.0469814 -0.274269E-11  0.947E-06    3.09    2071.9  T
  15    -32.0469814  0.710543E-14  0.378E-06    3.09    5185.2  T

   *** convergence criteria satisfied after 15 iterations ***

         #    Occupation            Energy/Eh            Energy/eV
      -------------------------------------------------------------
         1        2.0000           -0.6598085             -17.9543
       ...           ...                  ...                  ...
        24        2.0000           -0.4324562             -11.7677
        25        2.0000           -0.4232219             -11.5165
        26        2.0000           -0.4157402             -11.3129
        27        2.0000           -0.4106404             -11.1741
        28        2.0000           -0.4052746             -11.0281
        29        2.0000           -0.3996067             -10.8739
        30        2.0000           -0.3505274              -9.5383 (HOMO)
        31                         -0.2370488              -6.4504 (LUMO)
        32                         -0.2253217              -6.1313
        33                         -0.1473625              -4.0099
        34                         -0.1367878              -3.7222
        35                         -0.0904504              -2.4613
       ...                                ...                  ...
        64                          0.7711101              20.9830
      -------------------------------------------------------------
                  HL-Gap            0.1134786 Eh            3.0879 eV
             Fermi-level           -0.2937881 Eh           -7.9944 eV

 SCC (total)                   0 d,  0 h,  0 min,  0.090 sec
 SCC setup                      ...        0 min,  0.000 sec (  0.138%)
 Dispersion                     ...        0 min,  0.000 sec (  0.140%)
 classical contributions        ...        0 min,  0.000 sec (  0.011%)
 integral evaluation            ...        0 min,  0.002 sec (  2.139%)
 iterations                     ...        0 min,  0.086 sec ( 95.309%)
 molecular gradient             ...        0 min,  0.002 sec (  2.156%)
 printout                       ...        0 min,  0.000 sec (  0.088%)

         :::::::::::::::::::::::::::::::::::::::::::::::::::::
         ::                     SUMMARY                     ::
         :::::::::::::::::::::::::::::::::::::::::::::::::::::
         :: total energy             -31.531512111583 Eh    ::
         :: gradient norm              0.062113140383 Eh/a0 ::
         :: HOMO-LUMO gap              3.087909182481 eV    ::
         ::.................................................::
         :: SCC energy               -32.046845895314 Eh    ::
         :: -> isotropic ES            0.004317239302 Eh    ::
         :: -> anisotropic ES          0.006980601823 Eh    ::
         :: -> anisotropic XC          0.022438305409 Eh    ::
         :: -> dispersion             -0.024222065973 Eh    ::
         :: repulsion energy           0.515333783731 Eh    ::
         :: add. restraining           0.000000000000 Eh    ::
         :: total charge              -0.000000000000 e     ::
         :::::::::::::::::::::::::::::::::::::::::::::::::::::

      ----------------------------------------------------------- 
     |                   =====================                   |
     |                        A N C O P T                        |
     |                   =====================                   |
     |               Approximate Normal Coordinate               |
     |                Rational Function Optimizer                |
      ----------------------------------------------------------- 
      ----------------------------------------------------------- 
     |                   =====================                   |
     |                        A N C O P T                        |
     |                   =====================                   |
     |               Approximate Normal Coordinate               |
     |                Rational Function Optimizer                |
      ----------------------------------------------------------- 

          ...................................................
          :                      SETUP                      :
          :.................................................:
          :   optimization level           extreme          :
          :   max. optcycles                  5000          :
          :   ANC micro-cycles                  20          :
          :   degrees of freedom                72          :
          :.................................................:
          :   RF solver                   davidson          :
          :   write xtbopt.log                true          :
          :   linear?                        false          :
          :   energy convergence         0.5000000E-07 Eh   :
          :   grad. convergence          0.5000000E-04 Eh/α :
          :   maxmium RF displ.          1.0000000          :
          :   Hlow (freq-cutoff)         0.1000000E-01      :
          :   Hmax (freq-cutoff)         5.0000000          :
          :   S6 in model hess.         20.0000000          :
          ...................................................

generating ANC from model Hessian ...
Using Lindh-Hessian (1995)
 Shifting diagonal of input Hessian by   1.307063019460830E-002
 Lowest  eigenvalues of input Hessian
    0.010000    0.000000    0.000000    0.000000    0.000000    0.000000
    0.000000    0.013335    0.013953    0.014254    0.015670    0.016004
    0.019916    0.020845    0.021968    0.023628    0.024012    0.027652
 Highest eigenvalues
    1.350949    1.538327    1.565867    1.867392    1.969408    1.989628
 

........................................................................
.............................. CYCLE    1 ..............................
........................................................................

 iter      E             dE          RMSdq      gap      omega  full diag
   1    -32.0469814 -0.320470E+02  0.138E-06    3.09       0.0  T
   2    -32.0469814  0.710543E-14  0.851E-07    3.09   23032.2  T
   3    -32.0469814  0.355271E-13  0.480E-07    3.09   40857.8  T
     SCC iter.                  ...        0 min,  0.077 sec
     gradient                   ...        0 min,  0.002 sec
 * total energy  :   -31.5315121 Eh     change       -0.3197442E-12 Eh
   gradient norm :     0.0621131 Eh/α   predicted     0.0000000E+00 (-100.00%)
   displ. norm   :     0.5876684 α      lambda       -0.2009057E-01
   maximum displ.:     0.4090388 α      in ANC's #1, #5, #6, ...

........................................................................
.............................. CYCLE    2 ..............................
........................................................................

 iter      E             dE          RMSdq      gap      omega  full diag
   1    -32.0607158 -0.320607E+02  0.461E-01    3.40       0.0  T
   2    -32.0610855 -0.369756E-03  0.193E-01    3.49       1.0  T
   3    -32.0611137 -0.281126E-04  0.750E-02    3.54       1.0  T
   4    -32.0611158 -0.215647E-05  0.460E-02    3.53       1.0  T
   5    -32.0611370 -0.212131E-04  0.115E-02    3.54       1.7  T
   6    -32.0611389 -0.190393E-05  0.472E-03    3.54       4.2  T
   7    -32.0611389 -0.171520E-07  0.164E-03    3.54      11.9  T
   8    -32.0611390 -0.508687E-08  0.653E-04    3.54      30.0  T
   9    -32.0611390 -0.554567E-08  0.191E-04    3.54     102.7  T
  10    -32.0611390 -0.100734E-09  0.764E-05    3.54     256.6  T
  11    -32.0611390 -0.444231E-10  0.267E-05    3.54     734.0  T
  12    -32.0611390 -0.373745E-11  0.109E-05    3.54    1798.5  T
  13    -32.0611390 -0.440536E-12  0.456E-06    3.54    4300.4  T
  14    -32.0611390 -0.781597E-13  0.121E-06    3.54   16210.0  T
     SCC iter.                  ...        0 min,  0.078 sec
     gradient                   ...        0 min,  0.002 sec
 * total energy  :   -31.5438179 Eh     change       -0.1230574E-01 Eh
   gradient norm :     0.0182349 Eh/α   predicted    -0.1351450E-01 (   9.82%)
   displ. norm   :     0.4756415 α      lambda       -0.4894916E-02
   maximum displ.:     0.3333477 α      in ANC's #1, #5, #6, ...

........................................................................
.............................. CYCLE    3 ..............................
........................................................................

 iter      E             dE          RMSdq      gap      omega  full diag
   1    -32.0652867 -0.320653E+02  0.157E-01    3.54       0.0  T
   2    -32.0653033 -0.166669E-04  0.870E-02    3.55       1.0  T
   3    -32.0653030  0.340320E-06  0.217E-02    3.55       1.0  T
   4    -32.0653044 -0.140404E-05  0.583E-03    3.55       3.4  T
   5    -32.0653047 -0.339250E-06  0.258E-03    3.55       7.6  T
   6    -32.0653048 -0.833763E-07  0.129E-03    3.55      15.2  T
   7    -32.0653048 -0.589306E-08  0.569E-04    3.55      34.5  T
   8    -32.0653048 -0.148196E-08  0.146E-04    3.55     134.3  T
   9    -32.0653048 -0.263121E-09  0.771E-05    3.55     254.3  T
  10    -32.0653048 -0.488996E-10  0.223E-05    3.55     880.8  T
  11    -32.0653048 -0.223110E-11  0.112E-05    3.55    1747.2  T
  12    -32.0653048 -0.817124E-12  0.436E-06    3.55    4494.2  T
  13    -32.0653048 -0.355271E-13  0.143E-06    3.55   13700.1  T
     SCC iter.                  ...        0 min,  0.077 sec
     gradient                   ...        0 min,  0.002 sec
 * total energy  :   -31.5473585 Eh     change       -0.3540654E-02 Eh
   gradient norm :     0.0087156 Eh/α   predicted    -0.3001164E-02 ( -15.24%)
   displ. norm   :     0.4357490 α      lambda       -0.2407189E-02
   maximum displ.:     0.2867632 α      in ANC's #5, #1, #6, ...

........................................................................
.............................. CYCLE    4 ..............................
........................................................................

 iter      E             dE          RMSdq      gap      omega  full diag
   1    -32.0666065 -0.320666E+02  0.128E-01    3.59       0.0  T
   2    -32.0666195 -0.130195E-04  0.685E-02    3.60       1.0  T
   3    -32.0666186  0.940584E-06  0.206E-02    3.61       1.0  T
   4    -32.0666203 -0.178724E-05  0.103E-02    3.61       1.9  T
   5    -32.0666212 -0.849680E-06  0.268E-03    3.61       7.3  T
   6    -32.0666213 -0.133894E-06  0.138E-03    3.61      14.3  T
   7    -32.0666213 -0.238100E-08  0.744E-04    3.61      26.4  T
   8    -32.0666213 -0.919457E-09  0.135E-04    3.61     144.8  T
   9    -32.0666213 -0.484874E-10  0.608E-05    3.61     322.8  T
  10    -32.0666213 -0.633520E-10  0.254E-05    3.61     771.4  T
  11    -32.0666213 -0.127898E-11  0.101E-05    3.61    1934.6  T
  12    -32.0666213 -0.355271E-12  0.299E-06    3.61    6551.0  T
  13    -32.0666213  0.000000E+00  0.855E-07    3.61   22925.2  T
     SCC iter.                  ...        0 min,  0.080 sec
     gradient                   ...        0 min,  0.002 sec
 * total energy  :   -31.5490130 Eh     change       -0.1654449E-02 Eh
   gradient norm :     0.0074808 Eh/α   predicted    -0.1432133E-02 ( -13.44%)
   displ. norm   :     0.3570907 α      lambda       -0.9998435E-03
   maximum displ.:     0.2644598 α      in ANC's #5, #1, #3, ...

........................................................................
.............................. CYCLE    5 ..............................
........................................................................

 iter      E             dE          RMSdq      gap      omega  full diag
   1    -32.0682522 -0.320683E+02  0.796E-02    3.59       0.0  T
   2    -32.0682542 -0.201486E-05  0.461E-02    3.59       1.0  T
   3    -32.0682523  0.189117E-05  0.105E-02    3.58       1.9  T
   4    -32.0682546 -0.230602E-05  0.414E-03    3.59       4.7  T
   5    -32.0682548 -0.162626E-06  0.164E-03    3.59      12.0  T
   6    -32.0682548 -0.109066E-07  0.683E-04    3.59      28.7  T
   7    -32.0682548 -0.561961E-09  0.196E-04    3.59     100.0  T
   8    -32.0682548 -0.292623E-09  0.905E-05    3.59     216.8  T
   9    -32.0682548 -0.495746E-10  0.280E-05    3.59     701.4  T
  10    -32.0682548 -0.776623E-11  0.138E-05    3.59    1417.7  T
  11    -32.0682548 -0.140687E-11  0.522E-06    3.59    3758.6  T
  12    -32.0682548 -0.426326E-13  0.188E-06    3.59   10422.1  T
     SCC iter.                  ...        0 min,  0.080 sec
     gradient                   ...        0 min,  0.002 sec
 * total energy  :   -31.5497037 Eh     change       -0.6907330E-03 Eh
   gradient norm :     0.0056180 Eh/α   predicted    -0.5637122E-03 ( -18.39%)
   displ. norm   :     0.2616982 α      lambda       -0.4118876E-03
   maximum displ.:     0.2141003 α      in ANC's #5, #3, #9, ...

........................................................................
.............................. CYCLE    6 ..............................
........................................................................

 iter      E             dE          RMSdq      gap      omega  full diag
   1    -32.0691405 -0.320691E+02  0.559E-02    3.59       0.0  T
   2    -32.0691412 -0.670912E-06  0.314E-02    3.59       1.0  T
   3    -32.0691411  0.853822E-07  0.536E-03    3.59       3.7  T
   4    -32.0691413 -0.178677E-06  0.229E-03    3.59       8.6  T
   5    -32.0691413 -0.417400E-07  0.106E-03    3.59      18.5  T
   6    -32.0691413 -0.861321E-08  0.358E-04    3.59      54.8  T
   7    -32.0691413  0.560121E-10  0.111E-04    3.59     176.1  T
   8    -32.0691413 -0.128900E-09  0.498E-05    3.59     393.9  T
   9    -32.0691413 -0.209113E-10  0.214E-05    3.59     916.3  T
  10    -32.0691413 -0.358824E-11  0.107E-05    3.59    1837.6  T
  11    -32.0691413 -0.468958E-12  0.248E-06    3.59    7893.2  T
  12    -32.0691413  0.355271E-13  0.115E-06    3.59   17009.4  T
     SCC iter.                  ...        0 min,  0.077 sec
     gradient                   ...        0 min,  0.002 sec
 * total energy  :   -31.5500135 Eh     change       -0.3098617E-03 Eh
   gradient norm :     0.0045077 Eh/α   predicted    -0.2200489E-03 ( -28.98%)
   displ. norm   :     0.2107268 α      lambda       -0.2650712E-03
   maximum displ.:     0.1729120 α      in ANC's #5, #3, #8, ...

........................................................................
.............................. CYCLE    7 ..............................
........................................................................

 iter      E             dE          RMSdq      gap      omega  full diag
   1    -32.0702186 -0.320702E+02  0.489E-02    3.59       0.0  T
   2    -32.0702192 -0.549799E-06  0.278E-02    3.59       1.0  T
   3    -32.0702192  0.151359E-07  0.460E-03    3.59       4.3  T
   4    -32.0702193 -0.822823E-07  0.164E-03    3.59      12.0  T
   5    -32.0702193 -0.149709E-07  0.612E-04    3.59      32.0  T
   6    -32.0702193 -0.128863E-08  0.404E-04    3.59      48.5  T
   7    -32.0702193 -0.173631E-08  0.752E-05    3.59     260.9  T
   8    -32.0702193 -0.443308E-10  0.410E-05    3.59     478.9  T
   9    -32.0702193 -0.110987E-10  0.146E-05    3.59    1340.8  T
  10    -32.0702193 -0.632383E-12  0.530E-06    3.59    3700.8  T
  11    -32.0702193 -0.135003E-12  0.191E-06    3.59   10289.6  T
     SCC iter.                  ...        0 min,  0.076 sec
     gradient                   ...        0 min,  0.002 sec
 * total energy  :   -31.5502282 Eh     change       -0.2146038E-03 Eh
   gradient norm :     0.0034012 Eh/α   predicted    -0.1384285E-03 ( -35.50%)
   displ. norm   :     0.2528939 α      lambda       -0.2621180E-03
   maximum displ.:     0.1978030 α      in ANC's #5, #3, #8, ...

........................................................................
.............................. CYCLE    8 ..............................
........................................................................

 iter      E             dE          RMSdq      gap      omega  full diag
   1    -32.0705071 -0.320705E+02  0.599E-02    3.59       0.0  T
   2    -32.0705080 -0.849156E-06  0.338E-02    3.59       1.0  T
   3    -32.0705079  0.526053E-07  0.637E-03    3.59       3.1  T
   4    -32.0705081 -0.121708E-06  0.219E-03    3.59       9.0  T
   5    -32.0705081 -0.468881E-07  0.718E-04    3.59      27.3  T
   6    -32.0705081 -0.560730E-08  0.426E-04    3.59      46.1  T
   7    -32.0705081 -0.137115E-08  0.734E-05    3.59     267.1  T
   8    -32.0705081 -0.230713E-10  0.350E-05    3.59     559.6  T
   9    -32.0705081 -0.333955E-11  0.134E-05    3.59    1460.0  T
  10    -32.0705081 -0.149214E-12  0.608E-06    3.59    3224.2  T
  11    -32.0705081 -0.454747E-12  0.186E-06    3.59   10558.7  T
     SCC iter.                  ...        0 min,  0.075 sec
     gradient                   ...        0 min,  0.002 sec
 * total energy  :   -31.5504318 Eh     change       -0.2036347E-03 Eh
   gradient norm :     0.0040917 Eh/α   predicted    -0.1394425E-03 ( -31.52%)
   displ. norm   :     0.2618785 α      lambda       -0.2028060E-03
   maximum displ.:     0.1983749 α      in ANC's #5, #3, #6, ...

........................................................................
.............................. CYCLE    9 ..............................
........................................................................

 iter      E             dE          RMSdq      gap      omega  full diag
   1    -32.0702953 -0.320703E+02  0.625E-02    3.58       0.0  T
   2    -32.0702961 -0.805878E-06  0.351E-02    3.58       1.0  T
   3    -32.0702960  0.282159E-07  0.692E-03    3.58       2.8  T
   4    -32.0702962 -0.125458E-06  0.191E-03    3.58      10.3  T
   5    -32.0702962 -0.229997E-07  0.717E-04    3.58      27.3  T
   6    -32.0702962 -0.380297E-08  0.394E-04    3.58      49.7  T
   7    -32.0702962 -0.890182E-09  0.732E-05    3.58     267.9  T
   8    -32.0702962 -0.247624E-10  0.349E-05    3.58     562.4  T
   9    -32.0702962 -0.198952E-10  0.155E-05    3.58    1263.1  T
  10    -32.0702962 -0.945022E-12  0.409E-06    3.58    4799.5  T
  11    -32.0702962 -0.213163E-13  0.165E-06    3.58   11887.2  T
     SCC iter.                  ...        0 min,  0.076 sec
     gradient                   ...        0 min,  0.002 sec
 * total energy  :   -31.5505771 Eh     change       -0.1453302E-03 Eh
   gradient norm :     0.0046336 Eh/α   predicted    -0.1083621E-03 ( -25.44%)
   displ. norm   :     0.2010712 α      lambda       -0.1159721E-03
   maximum displ.:     0.1483779 α      in ANC's #5, #6, #3, ...

........................................................................
.............................. CYCLE   10 ..............................
........................................................................

 iter      E             dE          RMSdq      gap      omega  full diag
   1    -32.0703516 -0.320704E+02  0.494E-02    3.58       0.0  T
   2    -32.0703522 -0.526824E-06  0.278E-02    3.58       1.0  T
   3    -32.0703521  0.695388E-07  0.659E-03    3.58       3.0  T
   4    -32.0703523 -0.151300E-06  0.139E-03    3.58      14.1  T
   5    -32.0703523 -0.579649E-08  0.676E-04    3.58      29.0  T
   6    -32.0703523 -0.576672E-08  0.304E-04    3.58      64.4  T
   7    -32.0703523 -0.401435E-09  0.720E-05    3.58     272.4  T
   8    -32.0703523 -0.233769E-10  0.252E-05    3.58     779.3  T
   9    -32.0703523 -0.147082E-11  0.109E-05    3.58    1799.5  T
  10    -32.0703523 -0.945022E-12  0.443E-06    3.58    4431.0  T
  11    -32.0703523 -0.312639E-12  0.171E-06    3.58   11501.5  T
     SCC iter.                  ...        0 min,  0.075 sec
     gradient                   ...        0 min,  0.002 sec
 * total energy  :   -31.5506581 Eh     change       -0.8100908E-04 Eh
   gradient norm :     0.0034492 Eh/α   predicted    -0.6033239E-04 ( -25.52%)
   displ. norm   :     0.1368833 α      lambda       -0.6799234E-04
   maximum displ.:     0.0936013 α      in ANC's #5, #6, #3, ...

........................................................................
.............................. CYCLE   11 ..............................
........................................................................

 iter      E             dE          RMSdq      gap      omega  full diag
   1    -32.0707726 -0.320708E+02  0.357E-02    3.58       0.0  T
   2    -32.0707729 -0.339657E-06  0.204E-02    3.58       1.0  T
   3    -32.0707729  0.734161E-07  0.520E-03    3.58       3.8  T
   4    -32.0707730 -0.123479E-06  0.106E-03    3.58      18.5  T
   5    -32.0707730 -0.555415E-08  0.538E-04    3.58      36.5  T
   6    -32.0707730 -0.446157E-08  0.211E-04    3.58      92.8  T
   7    -32.0707730 -0.251916E-09  0.612E-05    3.58     320.5  T
   8    -32.0707730 -0.270859E-10  0.260E-05    3.58     755.2  T
   9    -32.0707730 -0.432721E-11  0.989E-06    3.58    1983.4  T
  10    -32.0707730 -0.717648E-12  0.419E-06    3.58    4679.7  T
     SCC iter.                  ...        0 min,  0.075 sec
     gradient                   ...        0 min,  0.002 sec
 * total energy  :   -31.5507060 Eh     change       -0.4786182E-04 Eh
   gradient norm :     0.0019854 Eh/α   predicted    -0.3463550E-04 ( -27.63%)
   displ. norm   :     0.1650662 α      lambda       -0.4581263E-04
   maximum displ.:     0.0988664 α      in ANC's #5, #6, #3, ...

........................................................................
.............................. CYCLE   12 ..............................
........................................................................

 iter      E             dE          RMSdq      gap      omega  full diag
   1    -32.0709759 -0.320710E+02  0.431E-02    3.58       0.0  T
   2    -32.0709762 -0.332807E-06  0.252E-02    3.58       1.0  T
   3    -32.0709761  0.108501E-06  0.443E-03    3.58       4.4  T
   4    -32.0709763 -0.157182E-06  0.129E-03    3.58      15.2  T
   5    -32.0709763 -0.131848E-07  0.529E-04    3.58      37.0  T
   6    -32.0709763 -0.385538E-08  0.287E-04    3.58      68.4  T
   7    -32.0709763 -0.476085E-09  0.884E-05    3.58     221.9  T
   8    -32.0709763 -0.968754E-10  0.251E-05    3.58     779.9  T
   9    -32.0709763 -0.410694E-11  0.890E-06    3.58    2202.8  T
  10    -32.0709763 -0.596856E-12  0.411E-06    3.58    4775.5  T
     SCC iter.                  ...        0 min,  0.074 sec
     gradient                   ...        0 min,  0.002 sec
 * total energy  :   -31.5507462 Eh     change       -0.4020295E-04 Eh
   gradient norm :     0.0030082 Eh/α   predicted    -0.2318412E-04 ( -42.33%)
   displ. norm   :     0.0524434 α      lambda       -0.2922284E-04
   maximum displ.:     0.0265244 α      in ANC's #2, #1, #9, ...

........................................................................
.............................. CYCLE   13 ..............................
........................................................................

 iter      E             dE          RMSdq      gap      omega  full diag
   1    -32.0714325 -0.320714E+02  0.137E-02    3.58       0.0  T
   2    -32.0714326 -0.703565E-07  0.736E-03    3.58       2.7  T
   3    -32.0714326  0.796092E-10  0.192E-03    3.58      10.2  T
   4    -32.0714326 -0.603196E-08  0.480E-04    3.58      40.8  T
   5    -32.0714326 -0.134418E-08  0.200E-04    3.58      98.1  T
   6    -32.0714326 -0.455046E-09  0.815E-05    3.58     240.6  T
   7    -32.0714326 -0.186873E-10  0.254E-05    3.58     772.4  T
   8    -32.0714326 -0.326139E-11  0.834E-06    3.58    2352.1  T
   9    -32.0714326 -0.646594E-12  0.379E-06    3.58    5175.7  T
     SCC iter.                  ...        0 min,  0.075 sec
     gradient                   ...        0 min,  0.002 sec
 * total energy  :   -31.5507706 Eh     change       -0.2443728E-04 Eh
   gradient norm :     0.0026584 Eh/α   predicted    -0.1465317E-04 ( -40.04%)
   displ. norm   :     0.1692711 α      lambda       -0.6967816E-04
   maximum displ.:     0.0825013 α      in ANC's #2, #1, #9, ...

........................................................................
.............................. CYCLE   14 ..............................
........................................................................

 iter      E             dE          RMSdq      gap      omega  full diag
   1    -32.0705700 -0.320706E+02  0.424E-02    3.58       0.0  T
   2    -32.0705704 -0.435835E-06  0.242E-02    3.58       1.0  T
   3    -32.0705704  0.133130E-07  0.460E-03    3.58       4.3  T
   4    -32.0705705 -0.540035E-07  0.128E-03    3.58      15.4  T
   5    -32.0705705 -0.891300E-08  0.530E-04    3.58      37.0  T
   6    -32.0705705 -0.380704E-08  0.201E-04    3.58      97.7  T
   7    -32.0705705 -0.942038E-10  0.509E-05    3.58     385.3  T
   8    -32.0705705 -0.874678E-11  0.120E-05    3.58    1636.3  T
   9    -32.0705705 -0.660805E-12  0.593E-06    3.58    3308.3  T
  10    -32.0705705 -0.177636E-12  0.194E-06    3.58   10134.2  T
     SCC iter.                  ...        0 min,  0.074 sec
     gradient                   ...        0 min,  0.002 sec
 * total energy  :   -31.5508110 Eh     change       -0.4035989E-04 Eh
   gradient norm :     0.0020133 Eh/α   predicted    -0.3583846E-04 ( -11.20%)
   displ. norm   :     0.0581839 α      lambda       -0.1748397E-04
   maximum displ.:     0.0305091 α      in ANC's #2, #4, #9, ...

........................................................................
.............................. CYCLE   15 ..............................
........................................................................

 iter      E             dE          RMSdq      gap      omega  full diag
   1    -32.0711422 -0.320711E+02  0.168E-02    3.59       0.0  T
   2    -32.0711424 -0.119377E-06  0.935E-03    3.59       2.1  T
   3    -32.0711424  0.262064E-08  0.184E-03    3.59      10.6  T
   4    -32.0711424 -0.981419E-08  0.718E-04    3.59      27.3  T
   5    -32.0711424 -0.357431E-08  0.220E-04    3.59      89.3  T
   6    -32.0711424 -0.448111E-09  0.130E-04    3.59     150.4  T
   7    -32.0711424 -0.189743E-09  0.366E-05    3.59     536.0  T
   8    -32.0711424 -0.878941E-11  0.123E-05    3.59    1592.3  T
   9    -32.0711424 -0.216005E-11  0.636E-06    3.59    3084.2  T
  10    -32.0711424 -0.568434E-13  0.214E-06    3.59    9160.0  T
     SCC iter.                  ...        0 min,  0.075 sec
     gradient                   ...        0 min,  0.002 sec
 * total energy  :   -31.5508225 Eh     change       -0.1155226E-04 Eh
   gradient norm :     0.0010065 Eh/α   predicted    -0.8777549E-05 ( -24.02%)
   displ. norm   :     0.0996194 α      lambda       -0.1081453E-04
   maximum displ.:     0.0628486 α      in ANC's #6, #2, #4, ...

........................................................................
.............................. CYCLE   16 ..............................
........................................................................

 iter      E             dE          RMSdq      gap      omega  full diag
   1    -32.0709832 -0.320710E+02  0.279E-02    3.59       0.0  T
   2    -32.0709833 -0.138649E-06  0.160E-02    3.59       1.2  T
   3    -32.0709833  0.188364E-07  0.301E-03    3.59       6.5  T
   4    -32.0709833 -0.379851E-07  0.834E-04    3.59      23.5  T
   5    -32.0709833 -0.188373E-08  0.243E-04    3.59      80.5  T
   6    -32.0709833 -0.504649E-09  0.152E-04    3.59     129.1  T
   7    -32.0709833 -0.177131E-09  0.366E-05    3.59     535.6  T
   8    -32.0709833 -0.161080E-10  0.110E-05    3.59    1785.2  T
   9    -32.0709833 -0.355271E-12  0.518E-06    3.59    3783.0  T
  10    -32.0709833 -0.376588E-12  0.183E-06    3.59   10738.7  T
     SCC iter.                  ...        0 min,  0.074 sec
     gradient                   ...        0 min,  0.002 sec
 * total energy  :   -31.5508317 Eh     change       -0.9138571E-05 Eh
   gradient norm :     0.0012068 Eh/α   predicted    -0.5433765E-05 ( -40.54%)
   displ. norm   :     0.0386153 α      lambda       -0.6817815E-05
   maximum displ.:     0.0301110 α      in ANC's #6, #10, #1, ...

........................................................................
.............................. CYCLE   17 ..............................
........................................................................

 iter      E             dE          RMSdq      gap      omega  full diag
   1    -32.0713967 -0.320714E+02  0.122E-02    3.59       0.0  T
   2    -32.0713968 -0.116413E-06  0.671E-03    3.59       2.9  T
   3    -32.0713968 -0.206222E-08  0.168E-03    3.59      11.7  T
   4    -32.0713968 -0.411207E-08  0.633E-04    3.59      31.0  T
   5    -32.0713968 -0.147915E-08  0.237E-04    3.59      82.6  T
   6    -32.0713968  0.262617E-10  0.112E-04    3.59     175.3  T
   7    -32.0713968 -0.125418E-09  0.431E-05    3.59     455.1  T
   8    -32.0713968 -0.467537E-11  0.796E-06    3.59    2463.2  T
   9    -32.0713968 -0.426326E-13  0.575E-06    3.59    3410.0  T
     SCC iter.                  ...        0 min,  0.075 sec
     gradient                   ...        0 min,  0.002 sec
 * total energy  :   -31.5508376 Eh     change       -0.5889139E-05 Eh
   gradient norm :     0.0015863 Eh/α   predicted    -0.3412815E-05 ( -42.05%)
   displ. norm   :     0.0815957 α      lambda       -0.8970037E-05
   maximum displ.:     0.0712582 α      in ANC's #6, #4, #5, ...

........................................................................
.............................. CYCLE   18 ..............................
........................................................................

 iter      E             dE          RMSdq      gap      omega  full diag
   1    -32.0713817 -0.320714E+02  0.232E-02    3.59       0.0  T
   2    -32.0713819 -0.138410E-06  0.132E-02    3.59       1.5  T
   3    -32.0713819  0.116860E-07  0.301E-03    3.59       6.5  T
   4    -32.0713819 -0.280528E-07  0.626E-04    3.59      31.3  T
   5    -32.0713819 -0.123502E-08  0.320E-04    3.59      61.2  T
   6    -32.0713819 -0.988543E-09  0.149E-04    3.59     131.2  T
   7    -32.0713819 -0.124878E-09  0.391E-05    3.59     502.0  T
   8    -32.0713819 -0.926548E-11  0.135E-05    3.59    1450.7  T
   9    -32.0713819 -0.575540E-12  0.760E-06    3.59    2579.3  T
  10    -32.0713819 -0.397904E-12  0.231E-06    3.59    8489.4  T
     SCC iter.                  ...        0 min,  0.074 sec
     gradient                   ...        0 min,  0.002 sec
 * total energy  :   -31.5508457 Eh     change       -0.8180361E-05 Eh
   gradient norm :     0.0012583 Eh/α   predicted    -0.4501687E-05 ( -44.97%)
   displ. norm   :     0.0623558 α      lambda       -0.6452747E-05
   maximum displ.:     0.0493931 α      in ANC's #6, #10, #1, ...

........................................................................
.............................. CYCLE   19 ..............................
........................................................................

 iter      E             dE          RMSdq      gap      omega  full diag
   1    -32.0711817 -0.320712E+02  0.170E-02    3.59       0.0  T
   2    -32.0711817 -0.393320E-07  0.993E-03    3.59       2.0  T
   3    -32.0711817 -0.212148E-08  0.928E-04    3.59      21.1  T
   4    -32.0711818 -0.220174E-08  0.397E-04    3.59      49.4  T
   5    -32.0711818 -0.212584E-08  0.157E-04    3.59     124.9  T
   6    -32.0711818 -0.103398E-09  0.597E-05    3.59     328.3  T
   7    -32.0711818 -0.490914E-10  0.225E-05    3.59     870.9  T
   8    -32.0711818 -0.464695E-11  0.657E-06    3.59    2983.1  T
   9    -32.0711818 -0.923706E-13  0.411E-06    3.59    4766.4  T
     SCC iter.                  ...        0 min,  0.076 sec
     gradient                   ...        0 min,  0.006 sec
 * total energy  :   -31.5508522 Eh     change       -0.6478539E-05 Eh
   gradient norm :     0.0008941 Eh/α   predicted    -0.3233768E-05 ( -50.08%)
   displ. norm   :     0.0520437 α      lambda       -0.4153174E-05
   maximum displ.:     0.0334080 α      in ANC's #6, #3, #2, ...

........................................................................
.............................. CYCLE   20 ..............................
........................................................................

 iter      E             dE          RMSdq      gap      omega  full diag
   1    -32.0713680 -0.320714E+02  0.146E-02    3.58       0.0  T
   2    -32.0713680 -0.359207E-07  0.849E-03    3.58       2.3  T
   3    -32.0713680  0.659025E-08  0.175E-03    3.58      11.2  T
   4    -32.0713680 -0.135574E-07  0.323E-04    3.58      60.8  T
   5    -32.0713680 -0.727667E-10  0.152E-04    3.58     129.0  T
   6    -32.0713680 -0.250466E-10  0.559E-05    3.58     350.6  T
   7    -32.0713680 -0.633804E-11  0.184E-05    3.58    1065.2  T
   8    -32.0713680 -0.567013E-11  0.528E-06    3.58    3711.4  T
   9    -32.0713680 -0.170530E-12  0.289E-06    3.58    6796.6  T
     SCC iter.                  ...        0 min,  0.076 sec
     gradient                   ...        0 min,  0.002 sec
 * total energy  :   -31.5508557 Eh     change       -0.3467043E-05 Eh
   gradient norm :     0.0005217 Eh/α   predicted    -0.2080866E-05 ( -39.98%)
   displ. norm   :     0.0313896 α      lambda       -0.1951019E-05
   maximum displ.:     0.0187893 α      in ANC's #6, #2, #3, ...
 * RMSD in coord.:     0.5363637 α      energy gain  -0.1934358E-01 Eh

generating ANC from model Hessian ...
Using Lindh-Hessian (1995)
 Shifting diagonal of input Hessian by   9.236594433354024E-003
 Lowest  eigenvalues of input Hessian
    0.000000    0.000000    0.000000    0.000000    0.000000    0.000000
    0.010000    0.010191    0.010724    0.011106    0.011913    0.012655
    0.015867    0.017411    0.017863    0.019147    0.020017    0.024207
 Highest eigenvalues
    1.364714    1.553593    1.575496    1.882980    1.989017    2.005732
 

........................................................................
.............................. CYCLE   21 ..............................
........................................................................

 iter      E             dE          RMSdq      gap      omega  full diag
   1    -32.0712278 -0.320712E+02  0.808E-03    3.58       0.0  T
   2    -32.0712278 -0.956507E-08  0.472E-03    3.58       4.2  T
   3    -32.0712278 -0.194831E-09  0.496E-04    3.58      39.5  T
   4    -32.0712278 -0.363165E-09  0.229E-04    3.58      85.7  T
   5    -32.0712278 -0.107396E-08  0.747E-05    3.58     262.4  T
   6    -32.0712278 -0.269509E-10  0.343E-05    3.58     572.5  T
   7    -32.0712278 -0.530065E-11  0.875E-06    3.58    2241.8  T
   8    -32.0712278 -0.341061E-12  0.390E-06    3.58    5031.9  T
     SCC iter.                  ...        0 min,  0.077 sec
     gradient                   ...        0 min,  0.003 sec
 * total energy  :   -31.5508579 Eh     change       -0.2235989E-05 Eh
   gradient norm :     0.0004803 Eh/α   predicted     0.0000000E+00 (-100.00%)
   displ. norm   :     0.0170186 α      lambda       -0.2661951E-06
   maximum displ.:     0.0119262 α      in ANC's #1, #2, #3, ...

........................................................................
.............................. CYCLE   22 ..............................
........................................................................

 iter      E             dE          RMSdq      gap      omega  full diag
   1    -32.0713045 -0.320713E+02  0.628E-03    3.58       0.0  T
   2    -32.0713045 -0.677468E-08  0.363E-03    3.58       5.4  T
   3    -32.0713045  0.875389E-10  0.494E-04    3.58      39.7  T
   4    -32.0713045 -0.883965E-09  0.225E-04    3.58      87.3  T
   5    -32.0713045 -0.290257E-09  0.844E-05    3.58     232.4  T
   6    -32.0713045  0.328271E-11  0.420E-05    3.58     467.4  T
   7    -32.0713045 -0.400036E-10  0.167E-05    3.58    1176.0  T
   8    -32.0713045 -0.511591E-12  0.443E-06    3.58    4429.2  T
   9    -32.0713045 -0.923706E-13  0.230E-06    3.58    8540.0  T
     SCC iter.                  ...        0 min,  0.078 sec
     gradient                   ...        0 min,  0.002 sec
 * total energy  :   -31.5508602 Eh     change       -0.2266049E-05 Eh
   gradient norm :     0.0001728 Eh/α   predicted    -0.9308663E-06 ( -58.92%)
   displ. norm   :     0.0365229 α      lambda       -0.2713199E-05
   maximum displ.:     0.0251405 α      in ANC's #1, #2, #3, ...

........................................................................
.............................. CYCLE   23 ..............................
........................................................................

 iter      E             dE          RMSdq      gap      omega  full diag
   1    -32.0713566 -0.320714E+02  0.123E-02    3.58       0.0  T
   2    -32.0713566 -0.176596E-07  0.714E-03    3.58       2.7  T
   3    -32.0713566  0.169030E-08  0.923E-04    3.58      21.2  T
   4    -32.0713566 -0.455233E-08  0.330E-04    3.58      59.3  T
   5    -32.0713566 -0.546940E-09  0.974E-05    3.58     201.4  T
   6    -32.0713566 -0.343903E-10  0.547E-05    3.58     358.4  T
   7    -32.0713566 -0.195755E-10  0.109E-05    3.58    1805.4  T
   8    -32.0713566 -0.639488E-13  0.349E-06    3.58    5611.9  T
   9    -32.0713566 -0.355271E-13  0.141E-06    3.58   13873.3  T
     SCC iter.                  ...        0 min,  0.079 sec
     gradient                   ...        0 min,  0.002 sec
 * total energy  :   -31.5508635 Eh     change       -0.3325850E-05 Eh
   gradient norm :     0.0004654 Eh/α   predicted    -0.1357813E-05 ( -59.17%)
   displ. norm   :     0.0512833 α      lambda       -0.3043163E-05
   maximum displ.:     0.0361949 α      in ANC's #1, #2, #3, ...

........................................................................
.............................. CYCLE   24 ..............................
........................................................................

 iter      E             dE          RMSdq      gap      omega  full diag
   1    -32.0713396 -0.320713E+02  0.172E-02    3.58       0.0  T
   2    -32.0713396 -0.169842E-07  0.100E-02    3.59       2.0  T
   3    -32.0713396 -0.227875E-08  0.624E-04    3.59      31.4  T
   4    -32.0713396 -0.159376E-08  0.327E-04    3.59      59.9  T
   5    -32.0713396 -0.589758E-09  0.116E-04    3.59     168.5  T
   6    -32.0713396  0.307239E-10  0.580E-05    3.59     338.3  T
   7    -32.0713396 -0.540936E-10  0.148E-05    3.59    1329.2  T
   8    -32.0713396 -0.632383E-12  0.478E-06    3.59    4101.4  T
   9    -32.0713396 -0.426326E-13  0.189E-06    3.59   10367.9  T
     SCC iter.                  ...        0 min,  0.076 sec
     gradient                   ...        0 min,  0.002 sec
 * total energy  :   -31.5508673 Eh     change       -0.3791765E-05 Eh
   gradient norm :     0.0004889 Eh/α   predicted    -0.1529485E-05 ( -59.66%)
   displ. norm   :     0.0563361 α      lambda       -0.3159242E-05
   maximum displ.:     0.0413143 α      in ANC's #1, #2, #3, ...

........................................................................
.............................. CYCLE   25 ..............................
........................................................................

 iter      E             dE          RMSdq      gap      omega  full diag
   1    -32.0713403 -0.320713E+02  0.196E-02    3.58       0.0  T
   2    -32.0713403 -0.274919E-07  0.113E-02    3.58       1.7  T
   3    -32.0713403 -0.154738E-08  0.911E-04    3.58      21.5  T
   4    -32.0713403 -0.181888E-08  0.445E-04    3.58      44.1  T
   5    -32.0713403 -0.282584E-08  0.123E-04    3.58     159.4  T
   6    -32.0713403 -0.145377E-10  0.621E-05    3.58     315.8  T
   7    -32.0713403 -0.411617E-10  0.204E-05    3.58     962.0  T
   8    -32.0713403 -0.198952E-12  0.549E-06    3.58    3575.4  T
   9    -32.0713403 -0.362377E-12  0.255E-06    3.58    7704.5  T
     SCC iter.                  ...        0 min,  0.075 sec
     gradient                   ...        0 min,  0.002 sec
 * total energy  :   -31.5508715 Eh     change       -0.4172093E-05 Eh
   gradient norm :     0.0003934 Eh/α   predicted    -0.1583867E-05 ( -62.04%)
   displ. norm   :     0.0607977 α      lambda       -0.3714259E-05
   maximum displ.:     0.0459438 α      in ANC's #1, #5, #6, ...

........................................................................
.............................. CYCLE   26 ..............................
........................................................................

 iter      E             dE          RMSdq      gap      omega  full diag
   1    -32.0713058 -0.320713E+02  0.216E-02    3.58       0.0  T
   2    -32.0713059 -0.234171E-07  0.127E-02    3.58       1.5  T
   3    -32.0713059 -0.375359E-08  0.633E-04    3.58      31.0  T
   4    -32.0713059 -0.122839E-08  0.309E-04    3.58      63.4  T
   5    -32.0713059 -0.101320E-08  0.121E-04    3.58     162.7  T
   6    -32.0713059 -0.536602E-10  0.512E-05    3.58     383.4  T
   7    -32.0713059 -0.125482E-10  0.154E-05    3.58    1274.2  T
   8    -32.0713059 -0.198952E-11  0.479E-06    3.58    4092.3  T
   9    -32.0713059 -0.142109E-12  0.206E-06    3.58    9508.6  T
     SCC iter.                  ...        0 min,  0.074 sec
     gradient                   ...        0 min,  0.002 sec
 * total energy  :   -31.5508768 Eh     change       -0.5363673E-05 Eh
   gradient norm :     0.0002532 Eh/α   predicted    -0.1860806E-05 ( -65.31%)
   displ. norm   :     0.0972571 α      lambda       -0.6678091E-05
   maximum displ.:     0.0738917 α      in ANC's #1, #5, #6, ...

........................................................................
.............................. CYCLE   27 ..............................
........................................................................

 iter      E             dE          RMSdq      gap      omega  full diag
   1    -32.0712124 -0.320712E+02  0.352E-02    3.58       0.0  T
   2    -32.0712124 -0.664972E-07  0.206E-02    3.58       1.0  T
   3    -32.0712125 -0.853021E-08  0.106E-03    3.58      18.5  T
   4    -32.0712125 -0.346772E-08  0.536E-04    3.58      36.6  T
   5    -32.0712125 -0.307785E-08  0.212E-04    3.58      92.4  T
   6    -32.0712125 -0.141064E-09  0.772E-05    3.58     254.2  T
   7    -32.0712125 -0.429381E-10  0.262E-05    3.58     747.4  T
   8    -32.0712125 -0.560618E-11  0.769E-06    3.58    2550.5  T
   9    -32.0712125 -0.170530E-12  0.359E-06    3.58    5469.6  T
     SCC iter.                  ...        0 min,  0.075 sec
     gradient                   ...        0 min,  0.002 sec
 * total energy  :   -31.5508868 Eh     change       -0.9908671E-05 Eh
   gradient norm :     0.0005610 Eh/α   predicted    -0.3357218E-05 ( -66.12%)
   displ. norm   :     1.3978885 α      lambda       -0.9670322E-04
   maximum displ.:     1.0733606 α      in ANC's #1, #5, #6, ...

........................................................................
.............................. CYCLE   28 ..............................
........................................................................

 iter      E             dE          RMSdq      gap      omega  full diag
   1    -32.0536955 -0.320537E+02  0.520E-01    3.55       0.0  T
   2    -32.0537169 -0.213896E-04  0.301E-01    3.55       1.0  T
   3    -32.0537165  0.395450E-06  0.346E-02    3.55       1.0  T
   4    -32.0537214 -0.489148E-05  0.772E-03    3.55       2.5  T
   5    -32.0537215 -0.140448E-06  0.372E-03    3.55       5.3  T
   6    -32.0537216 -0.832306E-07  0.192E-03    3.55      10.2  T
   7    -32.0537216 -0.196729E-07  0.570E-04    3.55      34.4  T
   8    -32.0537216 -0.164595E-08  0.219E-04    3.55      89.5  T
   9    -32.0537216 -0.189935E-09  0.896E-05    3.55     218.9  T
  10    -32.0537216 -0.529639E-10  0.455E-05    3.55     431.4  T
  11    -32.0537216 -0.141824E-10  0.110E-05    3.55    1781.1  T
  12    -32.0537216 -0.184741E-11  0.397E-06    3.55    4934.8  T
  13    -32.0537216 -0.710543E-14  0.120E-06    3.55   16363.2  T
     SCC iter.                  ...        0 min,  0.076 sec
     gradient                   ...        0 min,  0.002 sec
 * total energy  :   -31.5502134 Eh     change        0.6733550E-03 Eh
   gradient norm :     0.0227644 Eh/α   predicted    -0.9035963E-04 (-113.42%)
   displ. norm   :     0.4525416 α      lambda       -0.1342168E-02
   maximum displ.:     0.3279274 α      in ANC's #1, #5, #6, ...

........................................................................
.............................. CYCLE   29 ..............................
........................................................................

 iter      E             dE          RMSdq      gap      omega  full diag
   1    -32.0668628 -0.320669E+02  0.179E-01    3.57       0.0  T
   2    -32.0668696 -0.684945E-05  0.100E-01    3.57       1.0  T
   3    -32.0668688  0.848820E-06  0.263E-02    3.57       1.0  T
   4    -32.0668707 -0.197573E-05  0.446E-03    3.57       4.4  T
   5    -32.0668707  0.480696E-08  0.246E-03    3.57       8.0  T
   6    -32.0668708 -0.334553E-07  0.969E-04    3.57      20.2  T
   7    -32.0668708 -0.540807E-08  0.327E-04    3.57      59.9  T
   8    -32.0668708 -0.409045E-09  0.133E-04    3.57     147.1  T
   9    -32.0668708 -0.588969E-10  0.576E-05    3.57     340.2  T
  10    -32.0668708 -0.920863E-11  0.244E-05    3.57     804.5  T
  11    -32.0668708 -0.406430E-11  0.747E-06    3.57    2626.7  T
  12    -32.0668708 -0.881073E-12  0.211E-06    3.57    9299.5  T
     SCC iter.                  ...        0 min,  0.082 sec
     gradient                   ...        0 min,  0.002 sec
 * total energy  :   -31.5509321 Eh     change       -0.7186852E-03 Eh
   gradient norm :     0.0083058 Eh/α   predicted    -0.8085229E-03 (  12.50%)
   displ. norm   :     0.0390690 α      lambda       -0.7182761E-04
   maximum displ.:     0.0227498 α      in ANC's #5, #6, #1, ...

........................................................................
.............................. CYCLE   30 ..............................
........................................................................

 iter      E             dE          RMSdq      gap      omega  full diag
   1    -32.0696027 -0.320696E+02  0.188E-02    3.57       0.0  T
   2    -32.0696029 -0.210579E-06  0.988E-03    3.57       2.0  T
   3    -32.0696029  0.148693E-07  0.453E-03    3.57       4.3  T
   4    -32.0696030 -0.480619E-07  0.744E-04    3.57      26.4  T
   5    -32.0696030 -0.942563E-09  0.430E-04    3.57      45.6  T
   6    -32.0696030 -0.209048E-08  0.191E-04    3.57     102.6  T
   7    -32.0696030 -0.224219E-09  0.640E-05    3.57     306.4  T
   8    -32.0696030 -0.353850E-11  0.266E-05    3.57     736.5  T
   9    -32.0696030 -0.299849E-11  0.124E-05    3.57    1585.1  T
  10    -32.0696030 -0.142109E-12  0.427E-06    3.57    4589.8  T
  11    -32.0696030 -0.163425E-12  0.132E-06    3.57   14857.1  T
     SCC iter.                  ...        0 min,  0.075 sec
     gradient                   ...        0 min,  0.002 sec
 * total energy  :   -31.5509836 Eh     change       -0.5153479E-04 Eh
   gradient norm :     0.0061303 Eh/α   predicted    -0.3597486E-04 ( -30.19%)
   displ. norm   :     0.0365468 α      lambda       -0.4860407E-04
   maximum displ.:     0.0279717 α      in ANC's #1, #6, #5, ...

........................................................................
.............................. CYCLE   31 ..............................
........................................................................

 iter      E             dE          RMSdq      gap      omega  full diag
   1    -32.0716398 -0.320716E+02  0.187E-02    3.58       0.0  T
   2    -32.0716400 -0.194770E-06  0.100E-02    3.58       2.0  T
   3    -32.0716400  0.154702E-07  0.410E-03    3.58       4.8  T
   4    -32.0716401 -0.407976E-07  0.823E-04    3.58      23.8  T
   5    -32.0716401 -0.190774E-09  0.551E-04    3.58      35.6  T
   6    -32.0716401 -0.402203E-08  0.211E-04    3.58      93.1  T
   7    -32.0716401 -0.181387E-09  0.684E-05    3.58     286.9  T
   8    -32.0716401 -0.201794E-11  0.202E-05    3.58     970.4  T
   9    -32.0716401 -0.136424E-11  0.102E-05    3.58    1919.6  T
  10    -32.0716401 -0.191847E-12  0.331E-06    3.58    5932.8  T
  11    -32.0716401 -0.213163E-13  0.892E-07    3.58   21995.9  T
     SCC iter.                  ...        0 min,  0.075 sec
     gradient                   ...        0 min,  0.002 sec
 * total energy  :   -31.5510194 Eh     change       -0.3575569E-04 Eh
   gradient norm :     0.0049415 Eh/α   predicted    -0.2433676E-04 ( -31.94%)
   displ. norm   :     0.0881351 α      lambda       -0.5674749E-04
   maximum displ.:     0.0835981 α      in ANC's #1, #6, #4, ...

........................................................................
.............................. CYCLE   32 ..............................
........................................................................

 iter      E             dE          RMSdq      gap      omega  full diag
   1    -32.0731587 -0.320732E+02  0.393E-02    3.58       0.0  T
   2    -32.0731590 -0.263578E-06  0.226E-02    3.58       1.0  T
   3    -32.0731589  0.311673E-07  0.355E-03    3.58       5.5  T
   4    -32.0731590 -0.527129E-07  0.111E-03    3.58      17.7  T
   5    -32.0731590 -0.124383E-07  0.605E-04    3.58      32.4  T
   6    -32.0731590 -0.613053E-08  0.212E-04    3.58      92.6  T
   7    -32.0731590 -0.107761E-09  0.513E-05    3.58     382.5  T
   8    -32.0731590 -0.173799E-10  0.188E-05    3.58    1045.1  T
   9    -32.0731590 -0.341061E-12  0.890E-06    3.58    2203.2  T
  10    -32.0731590 -0.326850E-12  0.295E-06    3.58    6650.9  T
     SCC iter.                  ...        0 min,  0.075 sec
     gradient                   ...        0 min,  0.002 sec
 * total energy  :   -31.5510672 Eh     change       -0.4780914E-04 Eh
   gradient norm :     0.0044238 Eh/α   predicted    -0.2859694E-04 ( -40.19%)
   displ. norm   :     0.1124639 α      lambda       -0.7681861E-04
   maximum displ.:     0.1012189 α      in ANC's #1, #6, #3, ...

........................................................................
.............................. CYCLE   33 ..............................
........................................................................

 iter      E             dE          RMSdq      gap      omega  full diag
   1    -32.0737675 -0.320738E+02  0.474E-02    3.58       0.0  T
   2    -32.0737678 -0.264216E-06  0.273E-02    3.58       1.0  T
   3    -32.0737677  0.310509E-07  0.313E-03    3.58       6.3  T
   4    -32.0737678 -0.437847E-07  0.151E-03    3.58      13.0  T
   5    -32.0737678 -0.340234E-07  0.484E-04    3.58      40.5  T
   6    -32.0737678 -0.120247E-08  0.222E-04    3.58      88.5  T
   7    -32.0737678 -0.165826E-09  0.770E-05    3.58     254.8  T
   8    -32.0737678 -0.558487E-11  0.188E-05    3.58    1041.0  T
   9    -32.0737678 -0.142109E-11  0.111E-05    3.58    1762.0  T
  10    -32.0737678 -0.810019E-12  0.343E-06    3.58    5713.0  T
  11    -32.0737678 -0.426326E-13  0.888E-07    3.58   22079.9  T
     SCC iter.                  ...        0 min,  0.075 sec
     gradient                   ...        0 min,  0.002 sec
 * total energy  :   -31.5511368 Eh     change       -0.6959127E-04 Eh
   gradient norm :     0.0036932 Eh/α   predicted    -0.3889911E-04 ( -44.10%)
   displ. norm   :     0.1604278 α      lambda       -0.1102359E-03
   maximum displ.:     0.1355605 α      in ANC's #1, #3, #6, ...

........................................................................
.............................. CYCLE   34 ..............................
........................................................................

 iter      E             dE          RMSdq      gap      omega  full diag
   1    -32.0731942 -0.320732E+02  0.643E-02    3.58       0.0  T
   2    -32.0731946 -0.425578E-06  0.370E-02    3.57       1.0  T
   3    -32.0731945  0.710532E-07  0.506E-03    3.57       3.9  T
   4    -32.0731947 -0.148653E-06  0.152E-03    3.57      12.9  T
   5    -32.0731947 -0.100791E-07  0.559E-04    3.57      35.1  T
   6    -32.0731947 -0.243384E-08  0.296E-04    3.57      66.4  T
   7    -32.0731947 -0.321528E-09  0.573E-05    3.57     342.0  T
   8    -32.0731947 -0.702016E-11  0.241E-05    3.57     814.0  T
   9    -32.0731947 -0.621014E-11  0.109E-05    3.57    1803.3  T
  10    -32.0731947 -0.611067E-12  0.459E-06    3.57    4275.4  T
  11    -32.0731947  0.426326E-13  0.194E-06    3.57   10109.0  T
     SCC iter.                  ...        0 min,  0.075 sec
     gradient                   ...        0 min,  0.002 sec
 * total energy  :   -31.5512353 Eh     change       -0.9852378E-04 Eh
   gradient norm :     0.0028853 Eh/α   predicted    -0.5653774E-04 ( -42.62%)
   displ. norm   :     0.1991542 α      lambda       -0.1191657E-03
   maximum displ.:     0.1614781 α      in ANC's #1, #3, #5, ...

........................................................................
.............................. CYCLE   35 ..............................
........................................................................

 iter      E             dE          RMSdq      gap      omega  full diag
   1    -32.0717373 -0.320717E+02  0.771E-02    3.57       0.0  T
   2    -32.0717378 -0.486253E-06  0.445E-02    3.57       1.0  T
   3    -32.0717377  0.947098E-07  0.611E-03    3.57       3.2  T
   4    -32.0717379 -0.211585E-06  0.135E-03    3.57      14.6  T
   5    -32.0717379 -0.354195E-08  0.479E-04    3.57      41.0  T
   6    -32.0717379 -0.106944E-08  0.270E-04    3.57      72.5  T
   7    -32.0717379 -0.560256E-09  0.602E-05    3.57     325.7  T
   8    -32.0717379 -0.278035E-10  0.239E-05    3.57     821.2  T
   9    -32.0717379 -0.668621E-11  0.104E-05    3.57    1883.8  T
  10    -32.0717379 -0.675016E-12  0.409E-06    3.57    4799.8  T
  11    -32.0717379 -0.710543E-14  0.198E-06    3.57    9885.1  T
     SCC iter.                  ...        0 min,  0.076 sec
     gradient                   ...        0 min,  0.002 sec
 * total energy  :   -31.5513402 Eh     change       -0.1049025E-03 Eh
   gradient norm :     0.0034689 Eh/α   predicted    -0.6194647E-04 ( -40.95%)
   displ. norm   :     0.2140679 α      lambda       -0.1114921E-03
   maximum displ.:     0.1707470 α      in ANC's #1, #5, #3, ...

........................................................................
.............................. CYCLE   36 ..............................
........................................................................

 iter      E             dE          RMSdq      gap      omega  full diag
   1    -32.0700733 -0.320701E+02  0.813E-02    3.57       0.0  T
   2    -32.0700737 -0.415438E-06  0.471E-02    3.57       1.0  T
   3    -32.0700736  0.537289E-07  0.555E-03    3.57       3.5  T
   4    -32.0700738 -0.169078E-06  0.114E-03    3.57      17.2  T
   5    -32.0700738 -0.152504E-08  0.410E-04    3.57      47.8  T
   6    -32.0700738 -0.192564E-09  0.234E-04    3.57      83.9  T
   7    -32.0700738 -0.593104E-09  0.610E-05    3.57     321.7  T
   8    -32.0700738 -0.393072E-10  0.198E-05    3.57     991.8  T
   9    -32.0700738 -0.352429E-11  0.104E-05    3.57    1880.2  T
  10    -32.0700738 -0.923706E-12  0.330E-06    3.57    5939.3  T
  11    -32.0700738 -0.852651E-13  0.167E-06    3.57   11739.9  T
     SCC iter.                  ...        0 min,  0.075 sec
     gradient                   ...        0 min,  0.002 sec
 * total energy  :   -31.5514382 Eh     change       -0.9794669E-04 Eh
   gradient norm :     0.0049436 Eh/α   predicted    -0.5830160E-04 ( -40.48%)
   displ. norm   :     0.2412135 α      lambda       -0.1209376E-03
   maximum displ.:     0.1946580 α      in ANC's #1, #5, #3, ...

........................................................................
.............................. CYCLE   37 ..............................
........................................................................

 iter      E             dE          RMSdq      gap      omega  full diag
   1    -32.0684452 -0.320684E+02  0.915E-02    3.56       0.0  T
   2    -32.0684455 -0.391972E-06  0.532E-02    3.56       1.0  T
   3    -32.0684456 -0.114094E-07  0.450E-03    3.56       4.4  T
   4    -32.0684457 -0.112815E-06  0.112E-03    3.56      17.5  T
   5    -32.0684457 -0.113491E-08  0.447E-04    3.56      43.9  T
   6    -32.0684457 -0.272017E-09  0.256E-04    3.56      76.5  T
   7    -32.0684457 -0.817963E-09  0.624E-05    3.56     314.4  T
   8    -32.0684457 -0.347242E-10  0.191E-05    3.56    1026.4  T
   9    -32.0684457 -0.115108E-11  0.102E-05    3.56    1922.9  T
  10    -32.0684457 -0.108713E-11  0.292E-06    3.56    6714.7  T
  11    -32.0684457 -0.142109E-13  0.127E-06    3.56   15433.6  T
     SCC iter.                  ...        0 min,  0.076 sec
     gradient                   ...        0 min,  0.002 sec
 * total energy  :   -31.5515431 Eh     change       -0.1049389E-03 Eh
   gradient norm :     0.0064781 Eh/α   predicted    -0.6398683E-04 ( -39.02%)
   displ. norm   :     0.3549477 α      lambda       -0.1810889E-03
   maximum displ.:     0.2965197 α      in ANC's #1, #5, #3, ...

........................................................................
.............................. CYCLE   38 ..............................
........................................................................

 iter      E             dE          RMSdq      gap      omega  full diag
   1    -32.0661754 -0.320662E+02  0.137E-01    3.56       0.0  T
   2    -32.0661762 -0.762878E-06  0.798E-02    3.56       1.0  T
   3    -32.0661763 -0.108989E-06  0.493E-03    3.56       4.0  T
   4    -32.0661764 -0.138668E-06  0.162E-03    3.56      12.1  T
   5    -32.0661764 -0.634107E-08  0.718E-04    3.56      27.3  T
   6    -32.0661764 -0.280651E-08  0.392E-04    3.56      50.0  T
   7    -32.0661764 -0.136306E-08  0.792E-05    3.56     247.7  T
   8    -32.0661764 -0.323510E-10  0.249E-05    3.56     788.2  T
   9    -32.0661764 -0.518696E-12  0.110E-05    3.56    1789.0  T
  10    -32.0661764 -0.113687E-11  0.345E-06    3.56    5681.6  T
  11    -32.0661764 -0.213163E-13  0.136E-06    3.56   14408.8  T
     SCC iter.                  ...        0 min,  0.076 sec
     gradient                   ...        0 min,  0.002 sec
 * total energy  :   -31.5516859 Eh     change       -0.1427964E-03 Eh
   gradient norm :     0.0087063 Eh/α   predicted    -0.1019523E-03 ( -28.60%)
   displ. norm   :     0.4108087 α      lambda       -0.2289918E-03
   maximum displ.:     0.3595076 α      in ANC's #1, #5, #3, ...

........................................................................
.............................. CYCLE   39 ..............................
........................................................................

 iter      E             dE          RMSdq      gap      omega  full diag
   1    -32.0643409 -0.320643E+02  0.161E-01    3.55       0.0  T
   2    -32.0643418 -0.955687E-06  0.944E-02    3.56       1.0  T
   3    -32.0643420 -0.150843E-06  0.429E-03    3.56       4.6  T
   4    -32.0643421 -0.110762E-06  0.235E-03    3.56       8.4  T
   5    -32.0643422 -0.785600E-07  0.837E-04    3.56      23.4  T
   6    -32.0643422 -0.303051E-08  0.386E-04    3.56      50.9  T
   7    -32.0643422 -0.632596E-09  0.724E-05    3.56     271.0  T
   8    -32.0643422 -0.198028E-10  0.269E-05    3.56     728.7  T
   9    -32.0643422 -0.158451E-11  0.113E-05    3.56    1729.2  T
  10    -32.0643422 -0.186162E-11  0.422E-06    3.56    4649.7  T
  11    -32.0643422 -0.170530E-12  0.146E-06    3.56   13439.8  T
     SCC iter.                  ...        0 min,  0.076 sec
     gradient                   ...        0 min,  0.002 sec
 * total energy  :   -31.5518596 Eh     change       -0.1737516E-03 Eh
   gradient norm :     0.0105383 Eh/α   predicted    -0.1338184E-03 ( -22.98%)
   displ. norm   :     0.3753034 α      lambda       -0.3627853E-03
   maximum displ.:     0.3412240 α      in ANC's #1, #5, #3, ...

........................................................................
.............................. CYCLE   40 ..............................
........................................................................

 iter      E             dE          RMSdq      gap      omega  full diag
   1    -32.0667443 -0.320667E+02  0.150E-01    3.56       0.0  T
   2    -32.0667456 -0.137071E-05  0.879E-02    3.56       1.0  T
   3    -32.0667452  0.446596E-06  0.897E-03    3.56       2.2  T
   4    -32.0667460 -0.780134E-06  0.250E-03    3.56       7.8  T
   5    -32.0667460 -0.463863E-07  0.132E-03    3.56      14.9  T
   6    -32.0667460 -0.240129E-07  0.546E-04    3.56      35.9  T
   7    -32.0667460 -0.925120E-09  0.156E-04    3.56     125.7  T
   8    -32.0667460 -0.594227E-10  0.488E-05    3.56     402.2  T
   9    -32.0667460 -0.265103E-10  0.191E-05    3.56    1028.1  T
  10    -32.0667460 -0.916600E-12  0.614E-06    3.56    3193.0  T
  11    -32.0667460 -0.483169E-12  0.204E-06    3.56    9621.5  T
     SCC iter.                  ...        0 min,  0.075 sec
     gradient                   ...        0 min,  0.002 sec
 * total energy  :   -31.5521551 Eh     change       -0.2954190E-03 Eh
   gradient norm :     0.0085271 Eh/α   predicted    -0.2069377E-03 ( -29.95%)
   displ. norm   :     0.4552336 α      lambda       -0.4812662E-03
   maximum displ.:     0.4033389 α      in ANC's #1, #5, #3, ...

........................................................................
.............................. CYCLE   41 ..............................
........................................................................

 iter      E             dE          RMSdq      gap      omega  full diag
   1    -32.0715744 -0.320716E+02  0.178E-01    3.58       0.0  T
   2    -32.0715771 -0.270016E-05  0.104E-01    3.58       1.0  T
   3    -32.0715752  0.189370E-05  0.136E-02    3.58       1.4  T
   4    -32.0715777 -0.248542E-05  0.403E-03    3.58       4.9  T
   5    -32.0715779 -0.178609E-06  0.152E-03    3.58      12.9  T
   6    -32.0715779 -0.352083E-07  0.676E-04    3.58      29.0  T
   7    -32.0715779 -0.127328E-08  0.196E-04    3.58     100.2  T
   8    -32.0715779 -0.156383E-09  0.655E-05    3.58     299.4  T
   9    -32.0715779 -0.511449E-10  0.254E-05    3.58     771.4  T
  10    -32.0715779 -0.174083E-11  0.862E-06    3.58    2275.3  T
  11    -32.0715779 -0.104450E-11  0.294E-06    3.58    6669.5  T
     SCC iter.                  ...        0 min,  0.076 sec
     gradient                   ...        0 min,  0.002 sec
 * total energy  :   -31.5525214 Eh     change       -0.3663584E-03 Eh
   gradient norm :     0.0061277 Eh/α   predicted    -0.2904936E-03 ( -20.71%)
   displ. norm   :     0.6693049 α      lambda       -0.4477795E-03
   maximum displ.:     0.5994887 α      in ANC's #1, #5, #3, ...

........................................................................
.............................. CYCLE   42 ..............................
........................................................................

 iter      E             dE          RMSdq      gap      omega  full diag
   1    -32.0691329 -0.320691E+02  0.262E-01    3.57       0.0  T
   2    -32.0691366 -0.376582E-05  0.153E-01    3.58       1.0  T
   3    -32.0691343  0.233361E-05  0.137E-02    3.58       1.4  T
   4    -32.0691373 -0.294379E-05  0.604E-03    3.58       3.2  T
   5    -32.0691379 -0.644592E-06  0.140E-03    3.58      14.0  T
   6    -32.0691379 -0.190163E-08  0.694E-04    3.58      28.3  T
   7    -32.0691379 -0.912479E-09  0.144E-04    3.58     136.0  T
   8    -32.0691379 -0.341963E-09  0.663E-05    3.58     295.9  T
   9    -32.0691379 -0.364935E-10  0.218E-05    3.58     901.5  T
  10    -32.0691379 -0.281375E-11  0.701E-06    3.58    2799.4  T
  11    -32.0691379 -0.923706E-13  0.227E-06    3.58    8648.8  T
     SCC iter.                  ...        0 min,  0.075 sec
     gradient                   ...        0 min,  0.002 sec
 * total energy  :   -31.5528863 Eh     change       -0.3649165E-03 Eh
   gradient norm :     0.0090573 Eh/α   predicted    -0.3241737E-03 ( -11.16%)
   displ. norm   :     0.5900162 α      lambda       -0.6906359E-03
   maximum displ.:     0.4821089 α      in ANC's #1, #9, #2, ...
 * RMSD in coord.:     0.9398031 α      energy gain  -0.2030639E-02 Eh

generating ANC from model Hessian ...
Using Lindh-Hessian (1995)
 Shifting diagonal of input Hessian by   9.217023669682836E-003
 Lowest  eigenvalues of input Hessian
    0.000000    0.000000    0.000000    0.000000    0.000000    0.000000
    0.010000    0.010311    0.010593    0.011053    0.012048    0.012758
    0.015526    0.017653    0.017960    0.019506    0.020977    0.024267
 Highest eigenvalues
    1.362275    1.547244    1.577260    1.879640    1.986586    2.002984
 

........................................................................
.............................. CYCLE   43 ..............................
........................................................................

 iter      E             dE          RMSdq      gap      omega  full diag
   1    -32.0755799 -0.320756E+02  0.220E-01    3.61       0.0  T
   2    -32.0755869 -0.699688E-05  0.128E-01    3.61       1.0  T
   3    -32.0755800  0.685791E-05  0.224E-02    3.61       1.0  T
   4    -32.0755881 -0.802700E-05  0.748E-03    3.61       2.6  T
   5    -32.0755888 -0.702102E-06  0.273E-03    3.61       7.2  T
   6    -32.0755888 -0.398930E-07  0.125E-03    3.61      15.7  T
   7    -32.0755888 -0.983280E-08  0.403E-04    3.61      48.6  T
   8    -32.0755888 -0.505644E-09  0.111E-04    3.61     177.3  T
   9    -32.0755888 -0.149733E-09  0.453E-05    3.61     433.1  T
  10    -32.0755888 -0.108997E-10  0.172E-05    3.61    1140.6  T
  11    -32.0755888 -0.189004E-11  0.402E-06    3.61    4874.2  T
  12    -32.0755888 -0.568434E-13  0.161E-06    3.61   12208.0  T
     SCC iter.                  ...        0 min,  0.076 sec
     gradient                   ...        0 min,  0.002 sec
 * total energy  :   -31.5533207 Eh     change       -0.4344121E-03 Eh
   gradient norm :     0.0121666 Eh/α   predicted     0.0000000E+00 (-100.00%)
   displ. norm   :     0.0885947 α      lambda       -0.3236626E-03
   maximum displ.:     0.0638805 α      in ANC's #1, #10, #7, ...

........................................................................
.............................. CYCLE   44 ..............................
........................................................................

 iter      E             dE          RMSdq      gap      omega  full diag
   1    -32.0746596 -0.320747E+02  0.514E-02    3.59       0.0  T
   2    -32.0746610 -0.139710E-05  0.279E-02    3.59       1.0  T
   3    -32.0746611 -0.155511E-07  0.739E-03    3.59       2.7  T
   4    -32.0746612 -0.145400E-06  0.250E-03    3.59       7.8  T
   5    -32.0746612 -0.210236E-07  0.844E-04    3.59      23.2  T
   6    -32.0746612 -0.856259E-08  0.332E-04    3.59      59.0  T
   7    -32.0746612 -0.809941E-09  0.171E-04    3.59     114.9  T
   8    -32.0746612 -0.126448E-09  0.349E-05    3.59     561.5  T
   9    -32.0746612 -0.470379E-11  0.145E-05    3.59    1348.6  T
  10    -32.0746612 -0.144240E-11  0.541E-06    3.59    3627.9  T
  11    -32.0746612  0.142109E-13  0.224E-06    3.59    8771.6  T
     SCC iter.                  ...        0 min,  0.075 sec
     gradient                   ...        0 min,  0.002 sec
 * total energy  :   -31.5535426 Eh     change       -0.2218554E-03 Eh
   gradient norm :     0.0041469 Eh/α   predicted    -0.1631168E-03 ( -26.48%)
   displ. norm   :     0.1307819 α      lambda       -0.1675498E-03
   maximum displ.:     0.1061248 α      in ANC's #1, #10, #4, ...

........................................................................
.............................. CYCLE   45 ..............................
........................................................................

 iter      E             dE          RMSdq      gap      omega  full diag
   1    -32.0737381 -0.320737E+02  0.535E-02    3.60       0.0  T
   2    -32.0737386 -0.543892E-06  0.308E-02    3.60       1.0  T
   3    -32.0737386  0.210338E-07  0.415E-03    3.60       4.7  T
   4    -32.0737387 -0.929066E-07  0.137E-03    3.60      14.3  T
   5    -32.0737387 -0.100297E-07  0.535E-04    3.60      36.7  T
   6    -32.0737387 -0.949079E-09  0.250E-04    3.60      78.4  T
   7    -32.0737387 -0.284587E-09  0.109E-04    3.60     179.2  T
   8    -32.0737387 -0.102702E-09  0.204E-05    3.60     961.1  T
   9    -32.0737387 -0.118661E-11  0.862E-06    3.60    2274.9  T
  10    -32.0737387 -0.447642E-12  0.322E-06    3.60    6083.0  T
     SCC iter.                  ...        0 min,  0.075 sec
     gradient                   ...        0 min,  0.002 sec
 * total energy  :   -31.5536595 Eh     change       -0.1168663E-03 Eh
   gradient norm :     0.0028581 Eh/α   predicted    -0.8537206E-04 ( -26.95%)
   displ. norm   :     0.1319122 α      lambda       -0.1000746E-03
   maximum displ.:     0.1088305 α      in ANC's #1, #10, #4, ...

........................................................................
.............................. CYCLE   46 ..............................
........................................................................

 iter      E             dE          RMSdq      gap      omega  full diag
   1    -32.0735149 -0.320735E+02  0.479E-02    3.60       0.0  T
   2    -32.0735152 -0.345088E-06  0.274E-02    3.60       1.0  T
   3    -32.0735152  0.571399E-07  0.435E-03    3.60       4.5  T
   4    -32.0735153 -0.104928E-06  0.146E-03    3.60      13.4  T
   5    -32.0735153 -0.104490E-07  0.540E-04    3.60      36.3  T
   6    -32.0735153 -0.514463E-08  0.279E-04    3.60      70.2  T
   7    -32.0735153 -0.588770E-09  0.795E-05    3.60     246.5  T
   8    -32.0735153 -0.122569E-10  0.213E-05    3.60     922.1  T
   9    -32.0735153 -0.240874E-11  0.774E-06    3.60    2533.4  T
  10    -32.0735153 -0.696332E-12  0.233E-06    3.60    8424.6  T
     SCC iter.                  ...        0 min,  0.075 sec
     gradient                   ...        0 min,  0.002 sec
 * total energy  :   -31.5537461 Eh     change       -0.8658845E-04 Eh
   gradient norm :     0.0045327 Eh/α   predicted    -0.5091073E-04 ( -41.20%)
   displ. norm   :     0.1531083 α      lambda       -0.1164299E-03
   maximum displ.:     0.1228906 α      in ANC's #1, #10, #3, ...

........................................................................
.............................. CYCLE   47 ..............................
........................................................................

 iter      E             dE          RMSdq      gap      omega  full diag
   1    -32.0736889 -0.320737E+02  0.501E-02    3.60       0.0  T
   2    -32.0736891 -0.212933E-06  0.290E-02    3.60       1.0  T
   3    -32.0736889  0.179014E-06  0.345E-03    3.60       5.7  T
   4    -32.0736891 -0.213197E-06  0.156E-03    3.60      12.5  T
   5    -32.0736891 -0.338645E-07  0.499E-04    3.60      39.3  T
   6    -32.0736891 -0.306166E-09  0.250E-04    3.60      78.5  T
[...]
         :: total charge              -0.000000000000 e     ::
         :::::::::::::::::::::::::::::::::::::::::::::::::::::

           ------------------------------------------------- 
          |                Numerical Hessian                |
           ------------------------------------------------- 
step length          :   0.00500
SCC accuracy         :   0.30000
Hessian scale factor :   1.00000
frozen atoms in %    :   0.00000    0
RMS gradient         :   0.00002
estimated CPU  time      1.12 min
estimated wall time      0.14 min

writing file <hessian>.

 projected vibrational frequencies (cm⁻¹)
eigval :       -0.00    -0.00     0.00     0.00     0.00     0.00
eigval :       27.55    69.93    81.05   127.11   129.38   199.75
eigval :      204.17   227.93   261.36   277.13   283.91   356.79
eigval :      363.07   406.64   472.92   585.95   638.41   657.09
eigval :      683.19   704.69   729.36   746.85   791.33   871.16
eigval :      894.50   925.14   931.20   968.61   974.40   998.59
eigval :     1012.39  1021.89  1065.59  1072.88  1085.86  1115.63
eigval :     1123.31  1181.86  1203.28  1225.71  1227.86  1251.09
eigval :     1266.83  1282.25  1316.95  1408.59  1410.69  1421.70
eigval :     1450.97  1455.05  1461.93  1497.34  1501.02  1504.85
eigval :     1508.48  1577.46  1589.04  2938.92  2942.40  2949.42
eigval :     2960.72  3011.26  3013.21  3023.97  3024.74  3034.37
eigval :     3039.02  3058.68  3068.41  3074.73  3087.03  3094.11
           -------------------------------------------------
          |                Property Printout                |
           -------------------------------------------------

    * Orbital Energies and Occupations

         #    Occupation            Energy/Eh            Energy/eV
      -------------------------------------------------------------
         1        2.0000           -0.6587501             -17.9255
       ...           ...                  ...                  ...
        18        2.0000           -0.4770581             -12.9814
        19        2.0000           -0.4740046             -12.8983
        20        2.0000           -0.4690109             -12.7624
        21        2.0000           -0.4616250             -12.5615
        22        2.0000           -0.4527111             -12.3189
        23        2.0000           -0.4451390             -12.1128
        24        2.0000           -0.4393417             -11.9551
        25        2.0000           -0.4246785             -11.5561
        26        2.0000           -0.4143800             -11.2759
        27        2.0000           -0.4078076             -11.0970
        28        2.0000           -0.4028140             -10.9611
        29        2.0000           -0.4006871             -10.9033
        30        2.0000           -0.3635518              -9.8927 (HOMO)
        31                         -0.2298676              -6.2550 (LUMO)
        32                         -0.2215355              -6.0283
        33                         -0.1544413              -4.2026
        34                         -0.1499211              -4.0796
        35                         -0.0933376              -2.5398
        36                          0.0105491               0.2871
        37                          0.0441381               1.2011
        38                          0.1061526               2.8886
        39                          0.1121377               3.0514
        40                          0.1164894               3.1698
        41                          0.1320053               3.5920
       ...                                ...                  ...
        64                          0.7999290              21.7672
      -------------------------------------------------------------
                  HL-Gap            0.1336842 Eh            3.6377 eV
             Fermi-level           -0.2967097 Eh           -8.0739 eV

     #   Z          covCN         q      C6AA      α(0)
     1  15 P        3.020    -0.113   165.368    23.102
     2   6 C        3.748    -0.044    21.428     6.602
     3   1 H        0.926     0.042     2.424     2.435
     4   1 H        0.926     0.041     2.438     2.442
     5   6 C        3.780    -0.094    22.320     6.730
     6   1 H        0.925     0.037     2.483     2.464
     7   1 H        0.925     0.038     2.479     2.462
     8   1 H        0.925     0.032     2.560     2.502
     9   6 C        2.915     0.010    27.790     8.645
    10   6 C        2.961    -0.034    28.832     8.807
    11   6 C        3.021    -0.030    28.727     8.792
    12   6 C        2.919    -0.031    28.768     8.795
    13   6 C        2.918    -0.030    28.754     8.793
    14   6 C        2.920    -0.031    28.777     8.797
    15   1 H        0.926     0.033     2.549     2.497
    16   1 H        0.925     0.034     2.532     2.488
    17   1 H        0.926     0.028     2.617     2.530
    18   1 H        0.926     0.029     2.604     2.523
    19   1 H        0.926     0.028     2.611     2.527
    20   6 C        3.748    -0.045    21.450     6.606
    21   1 H        0.926     0.041     2.441     2.443
    22   1 H        0.925     0.047     2.362     2.403
    23   6 C        3.819    -0.097    22.332     6.725
    24   1 H        0.925     0.041     2.431     2.438
    25   1 H        0.925     0.037     2.489     2.467
    26   1 H        0.925     0.032     2.556     2.500

 Mol. C6AA /au·bohr⁶  :       7601.109737
 Mol. C8AA /au·bohr⁸  :     202606.252182
 Mol. α(0) /au        :        139.517012


Wiberg/Mayer (AO) data.
largest (>0.10) Wiberg bond orders for each atom

 ---------------------------------------------------------------------------
     #   Z sym  total        # sym  WBO       # sym  WBO       # sym  WBO
 ---------------------------------------------------------------------------
     1  15 P    3.378 --    20 C    1.028     9 C    1.019     2 C    1.014
     2   6 C    3.994 --     1 P    1.014     5 C    1.012     4 H    0.956
                             3 H    0.954
     3   1 H    0.998 --     2 C    0.954
     4   1 H    0.998 --     2 C    0.956
     5   6 C    3.997 --     2 C    1.012     7 H    0.984     8 H    0.983
                             6 H    0.983
     6   1 H    0.999 --     5 C    0.983
     7   1 H    0.999 --     5 C    0.984
     8   1 H    0.999 --     5 C    0.983
     9   6 C    3.982 --    10 C    1.402    11 C    1.390     1 P    1.019
                            14 C    0.106
    10   6 C    3.993 --    12 C    1.441     9 C    1.402    15 H    0.963
                            13 C    0.107
    11   6 C    3.992 --    13 C    1.457     9 C    1.390    16 H    0.962
                            12 C    0.110
    12   6 C    3.993 --    14 C    1.441    10 C    1.441    17 H    0.970
                            11 C    0.110
    13   6 C    3.992 --    11 C    1.457    14 C    1.428    18 H    0.970
                            10 C    0.107
    14   6 C    3.991 --    12 C    1.441    13 C    1.428    19 H    0.971
                             9 C    0.106
    15   1 H    0.999 --    10 C    0.963
    16   1 H    0.999 --    11 C    0.962
    17   1 H    0.999 --    12 C    0.970
    18   1 H    0.999 --    13 C    0.970
    19   1 H    0.998 --    14 C    0.971
    20   6 C    3.995 --     1 P    1.028    23 C    1.015    21 H    0.956
                            22 H    0.951
    21   1 H    0.998 --    20 C    0.956
    22   1 H    0.998 --    20 C    0.951
    23   6 C    3.996 --    20 C    1.015    26 H    0.985    24 H    0.984
                            25 H    0.984
    24   1 H    0.998 --    23 C    0.984
    25   1 H    0.999 --    23 C    0.984
    26   1 H    0.999 --    23 C    0.985
 ---------------------------------------------------------------------------

Topologies differ in total number of bonds
Writing topology from bond orders to xtbtopo.mol

molecular dipole:
                 x           y           z       tot (Debye)
 q only:        0.115      -0.293       0.150
   full:       -0.007      -0.522       0.409       1.686
molecular quadrupole (traceless):
                xx          xy          yy          xz          yz          zz
 q only:        2.032      -1.526      -0.714       0.748       2.800      -1.318
  q+dip:        4.287      -3.065      -2.673       3.518       6.469      -1.614
   full:        3.518      -3.166      -0.407       3.486       5.988      -3.111

           -------------------------------------------------
          |                Geometry Summary                 |
           -------------------------------------------------

      molecular mass/u    :      166.2002322
   center of mass at/Å    :        0.7585715      -0.0745916      -1.8885399
  moments of inertia/u·Å² :        0.2863737E+03   0.8240547E+03   0.9291910E+03
rotational constants/cm⁻¹ :        0.5886586E-01   0.2045693E-01   0.1814227E-01

 * 24 selected distances

     #   Z          #   Z                                           value/Å
     2   6 C        3   1 H                                       1.0934742
     2   6 C        4   1 H                                       1.0934598
     2   6 C        5   6 C                                       1.5222160
     5   6 C        6   1 H                                       1.0887844
     5   6 C        7   1 H                                       1.0872249
     5   6 C        8   1 H                                       1.0891458
     9   6 C       10   6 C                                       1.3897886
     9   6 C       11   6 C                                       1.3938421
    10   6 C       12   6 C                                       1.3845519
    11   6 C       13   6 C                                       1.3809629
    12   6 C       14   6 C                                       1.3835639
    13   6 C       14   6 C                                       1.3856020
    10   6 C       15   1 H                                       1.0792823 (min)
    11   6 C       16   1 H                                       1.0816618
    12   6 C       17   1 H                                       1.0808618
    13   6 C       18   1 H                                       1.0806323
    14   6 C       19   1 H                                       1.0801499
     1  15 P       20   6 C                                       1.8645775 (max)
    20   6 C       21   1 H                                       1.0940414
    20   6 C       22   1 H                                       1.0924559
    20   6 C       23   6 C                                       1.5234282
    23   6 C       24   1 H                                       1.0885020
    23   6 C       25   1 H                                       1.0877691
    23   6 C       26   1 H                                       1.0890269

 * 3 distinct bonds (by element types)

   Z      Z             #   av. dist./Å        max./Å        min./Å
   1 H    6 C          15     1.0870982     1.0940414     1.0792823
   6 C    6 C           8     1.4204945     1.5234282     1.3809629
   6 C   15 P           1     1.8645775     1.8645775     1.8645775

           -------------------------------------------------
          |               Frequency Printout                |
           -------------------------------------------------
 projected vibrational frequencies (cm⁻¹)
eigval :       -0.00    -0.00     0.00     0.00     0.00     0.00
eigval :       27.55    69.93    81.05   127.11   129.38   199.75
eigval :      204.17   227.93   261.36   277.13   283.91   356.79
eigval :      363.07   406.64   472.92   585.95   638.41   657.09
eigval :      683.19   704.69   729.36   746.85   791.33   871.16
eigval :      894.50   925.14   931.20   968.61   974.40   998.59
eigval :     1012.39  1021.89  1065.59  1072.88  1085.86  1115.63
eigval :     1123.31  1181.86  1203.28  1225.71  1227.86  1251.09
eigval :     1266.83  1282.25  1316.95  1408.59  1410.69  1421.70
eigval :     1450.97  1455.05  1461.93  1497.34  1501.02  1504.85
eigval :     1508.48  1577.46  1589.04  2938.92  2942.40  2949.42
eigval :     2960.72  3011.26  3013.21  3023.97  3024.74  3034.37
eigval :     3039.02  3058.68  3068.41  3074.73  3087.03  3094.11
 reduced masses (amu)
   1: 14.47   2: 14.14   3: 11.87   4: 12.21   5: 12.36   6: 12.61   7:  9.92   8:  9.17
   9:  9.62  10:  6.57  11: 10.54  12:  7.50  13:  3.23  14:  9.54  15:  6.39  16:  9.90
  17: 11.27  18: 13.77  19:  9.07  20: 19.01  21: 13.16  22: 11.18  23: 13.86  24: 10.50
  25: 12.57  26: 15.64  27:  4.49  28:  5.42  29:  4.04  30:  3.33  31:  3.58  32:  4.15
  33:  2.98  34: 10.12  35:  3.65  36:  3.15  37:  3.72  38:  3.91  39:  9.50  40:  9.32
  41:  8.37  42:  8.48  43:  4.43  44:  1.30  45:  1.99  46:  3.63  47:  3.30  48:  4.17
  49:  4.15  50:  3.37  51: 11.92  52:  2.93  53:  2.95  54:  8.59  55:  4.47  56:  2.35
  57:  5.34  58:  1.55  59:  1.54  60:  1.54  61:  1.56  62: 11.43  63: 11.44  64:  1.98
  65:  1.97  66:  1.49  67:  1.49  68:  1.87  69:  1.87  70:  1.72  71:  1.87  72:  1.42
  73:  1.55  74:  1.79  75:  1.77  76:  1.84  77:  1.88  78:  1.86
 IR intensities (km·mol⁻¹)
   1:  0.13   2:  0.00   3:  0.10   4:  0.08   5:  0.13   6:  0.16   7:  0.07   8:  0.09
   9:  0.18  10:  0.86  11:  0.21  12:  0.08  13:  0.10  14:  0.14  15:  0.20  16:  0.23
  17:  0.50  18:  0.38  19:  0.04  20:  1.77  21:  4.72  22:  0.05  23: 10.59  24:  3.02
  25:  0.15  26: 26.06  27: 34.36  28: 18.20  29: 19.54  30:  0.22  31:  0.01  32:  0.08
  33:  0.01  34:  1.96  35:  1.39  36:  2.34  37:  1.85  38:  8.50  39:  9.79  40:  6.89
  41:  0.07  42:  1.30  43:  0.06  44:  0.02  45:  0.79  46:  2.43  47:  4.10  48:  3.46
  49:  5.49  50:  0.21  51:  0.39  52:  1.55  53:  2.28  54:  0.76  55:  1.12  56:  1.48
  57:  0.07  58:  3.55  59:  0.67  60:  1.10  61:  1.08  62:  0.46  63:  5.36  64: 21.61
  65: 21.24  66:  9.20  67: 22.31  68: 51.20  69: 51.55  70: 23.39  71: 30.04  72: 24.85
  73: 21.80  74: 14.89  75:  5.45  76: 51.94  77: 77.50  78: 26.59
 Raman intensities (Ä⁴*amu⁻¹)
   1:  0.00   2:  0.00   3:  0.00   4:  0.00   5:  0.00   6:  0.00   7:  0.00   8:  0.00
   9:  0.00  10:  0.00  11:  0.00  12:  0.00  13:  0.00  14:  0.00  15:  0.00  16:  0.00
  17:  0.00  18:  0.00  19:  0.00  20:  0.00  21:  0.00  22:  0.00  23:  0.00  24:  0.00
  25:  0.00  26:  0.00  27:  0.00  28:  0.00  29:  0.00  30:  0.00  31:  0.00  32:  0.00
  33:  0.00  34:  0.00  35:  0.00  36:  0.00  37:  0.00  38:  0.00  39:  0.00  40:  0.00
  41:  0.00  42:  0.00  43:  0.00  44:  0.00  45:  0.00  46:  0.00  47:  0.00  48:  0.00
  49:  0.00  50:  0.00  51:  0.00  52:  0.00  53:  0.00  54:  0.00  55:  0.00  56:  0.00
  57:  0.00  58:  0.00  59:  0.00  60:  0.00  61:  0.00  62:  0.00  63:  0.00  64:  0.00
  65:  0.00  66:  0.00  67:  0.00  68:  0.00  69:  0.00  70:  0.00  71:  0.00  72:  0.00
  73:  0.00  74:  0.00  75:  0.00  76:  0.00  77:  0.00  78:  0.00
 output can be read by thermo (or use thermo option).
 writing <g98.out> molden fake output.
 recommended (thermochemical) frequency scaling factor: 1.0
           -------------------------------------------------
          |             Thermodynamic Functions             |
           -------------------------------------------------

Molecule has no symmetry elements
It seems to be the C1 point group
c1  symmetry found (for desy threshold:  0.10E+00) used in thermo

          ...................................................
          :                      SETUP                      :
          :.................................................:
          :  # frequencies                          72      :
          :  # imaginary freq.                       0      :
          :  linear?                             false      :
          :  only rotor calc.                    false      :
          :  symmetry                               c1      :
          :  rotational number                       1      :
          :  scaling factor                  1.0000000      :
          :  rotor cutoff                   50.0000000 cm⁻¹ :
          :  imag. cutoff                  -20.0000000 cm⁻¹ :
          :.................................................:

    mode    ω/cm⁻¹     T·S(HO)/kcal·mol⁻¹    T·S(FR)/kcal·mol⁻¹   T·S(vib)
   ------------------------------------------------------------------------
       1     27.55    -1.78834 (  8.44%)    -1.23280 ( 91.56%)    -1.27971
       2     69.93    -1.23894 ( 79.28%)    -0.95708 ( 20.72%)    -1.18053
       3     81.05    -1.15245 ( 87.35%)    -0.91337 ( 12.65%)    -1.12220
       4    127.11    -0.89124 ( 97.66%)    -0.78008 (  2.34%)    -0.88865
       5    129.38    -0.88113 ( 97.82%)    -0.77486 (  2.18%)    -0.87881
       6    199.75    -0.63666 ( 99.61%)    -0.64620 (  0.39%)    -0.63670
       7    204.17    -0.62467 ( 99.64%)    -0.63972 (  0.36%)    -0.62473
       8    227.93    -0.56506 ( 99.77%)    -0.60712 (  0.23%)    -0.56516
       9    261.36    -0.49275 ( 99.87%)    -0.56658 (  0.13%)    -0.49285
      10    277.13    -0.46253 ( 99.89%)    -0.54923 (  0.11%)    -0.46263
      11    283.91    -0.45021 ( 99.90%)    -0.54206 (  0.10%)    -0.45030
   ------------------------------------------------------------------------

   temp. (K)  partition function   enthalpy   heat capacity  entropy
                                   cal/mol     cal/K/mol   cal/K/mol   J/K/mol
 298.15  VIB  0.120E+05             6093.673     39.514     37.079
         ROT  0.113E+07              888.752      2.981     30.681
         INT  0.135E+11             6982.425     42.495     67.760
         TR   0.207E+28             1481.254      4.968     41.214
         TOT                        8463.6794    47.4628   108.9738   455.9463

       T/K    H(0)-H(T)+PV         H(T)/Eh          T*S/Eh         G(T)/Eh
   ------------------------------------------------------------------------
    298.15    0.134877E-01    0.232535E+00    0.517770E-01    0.180758E+00
   ------------------------------------------------------------------------

         :::::::::::::::::::::::::::::::::::::::::::::::::::::
         ::                  THERMODYNAMIC                  ::
         :::::::::::::::::::::::::::::::::::::::::::::::::::::
         :: total free energy         -31.375170721630 Eh   ::
         ::.................................................::
         :: total energy              -31.555928821577 Eh   ::
         :: zero point energy           0.219047327482 Eh   ::
         :: G(RRHO) w/o ZPVE           -0.038289227535 Eh   ::
         :: G(RRHO) contrib.            0.180758099947 Eh   ::
         :::::::::::::::::::::::::::::::::::::::::::::::::::::

optimized geometry written to: xtbopt.xyz


           -------------------------------------------------
          | TOTAL ENERGY              -31.555928821577 Eh   |
          | TOTAL ENTHALPY            -31.323393762519 Eh   |
          | TOTAL FREE ENERGY         -31.375170721630 Eh   |
          | GRADIENT NORM               0.000022262424 Eh/α |
          | HOMO-LUMO GAP               3.637732378024 eV   |
           -------------------------------------------------

------------------------------------------------------------------------
 * finished run on 2025/07/14 at 11:37:39.127     
------------------------------------------------------------------------
 total:
 * wall-time:     0 d,  0 h,  0 min, 13.020 sec
 *  cpu-time:     0 d,  0 h,  2 min, 21.952 sec
 * ratio c/w:    10.903 speedup
 SCF:
 * wall-time:     0 d,  0 h,  0 min,  0.090 sec
 *  cpu-time:     0 d,  0 h,  0 min,  1.074 sec
 * ratio c/w:    11.941 speedup
 ANC optimizer:
 * wall-time:     0 d,  0 h,  0 min,  9.658 sec
 *  cpu-time:     0 d,  0 h,  1 min, 54.756 sec
 * ratio c/w:    11.882 speedup
 analytical hessian:
 * wall-time:     0 d,  0 h,  0 min,  3.262 sec
 *  cpu-time:     0 d,  0 h,  0 min, 26.032 sec
 * ratio c/w:     7.980 speedup

