      -----------------------------------------------------------      
     |                   =====================                   |     
     |                           x T B                           |     
     |                   =====================                   |     
     |                         S. Grimme                         |     
     |          Mulliken Center for Theoretical Chemistry        |     
     |                    University of Bonn                     |     
      -----------------------------------------------------------      

   * xtb version 6.7.0 (08769fc) compiled by 'albert@albert-system' on 2024-03-04

   xtb is free software: you can redistribute it and/or modify it under
   the terms of the GNU Lesser General Public License as published by
   the Free Software Foundation, either version 3 of the License, or
   (at your option) any later version.
   
   xtb is distributed in the hope that it will be useful,
   but WITHOUT ANY WARRANTY; without even the implied warranty of
   MERCHANTABILITY or FITNESS FOR A PARTICULAR PURPOSE.  See the
   GNU Lesser General Public License for more details.
   
   Cite this work as:
   * C. Bannwarth, E. Caldeweyher, S. Ehlert, A. Hansen, P. Pracht,
     J. Seibert, S. Spicher, S. Grimme, WIREs Comput. Mol. Sci., 2020, 11,
     e01493. DOI: 10.1002/wcms.1493
   
   for GFN2-xTB:
   * C. Bannwarth, S. Ehlert and S. Grimme., J. Chem. Theory Comput., 2019,
     15, 1652-1671. DOI: 10.1021/acs.jctc.8b01176
   for GFN1-xTB:
   * S. Grimme, C. Bannwarth, P. Shushkov, J. Chem. Theory Comput., 2017,
     13, 1989-2009. DOI: 10.1021/acs.jctc.7b00118
   for GFN0-xTB:
   * P. Pracht, E. Caldeweyher, S. Ehlert, S. Grimme, ChemRxiv, 2019, preprint.
     DOI: 10.26434/chemrxiv.8326202.v1
   for GFN-FF:
   * S. Spicher and S. Grimme, Angew. Chem. Int. Ed., 2020, 59, 15665-15673.
     DOI: 10.1002/anie.202004239
   
   for ALPB and GBSA implicit solvation:
   * S. Ehlert, M. Stahn, S. Spicher, S. Grimme, J. Chem. Theory Comput.,
     2021, 17, 4250-4261. DOI: 10.1021/acs.jctc.1c00471
   
   for ddCOSMO and CPCM-X implicit solvation:
   * M. Stahn, S. Ehlert, S. Grimme, J. Phys. Chem. A,
     2023, XX, XXXX-XXXX. DOI: 10.1021/acs.jpca.3c04382
   
   for DFT-D4:
   * E. Caldeweyher, C. Bannwarth and S. Grimme, J. Chem. Phys., 2017,
     147, 034112. DOI: 10.1063/1.4993215
   * E. Caldeweyher, S. Ehlert, A. Hansen, H. Neugebauer, S. Spicher,
     C. Bannwarth and S. Grimme, J. Chem. Phys., 2019, 150, 154122.
     DOI: 10.1063/1.5090222
   * E. Caldeweyher, J.-M. Mewes, S. Ehlert and S. Grimme, Phys. Chem. Chem. Phys.
     2020, 22, 8499-8512. DOI: 10.1039/D0CP00502A
   
   for sTDA-xTB:
   * S. Grimme and C. Bannwarth, J. Chem. Phys., 2016, 145, 054103.
     DOI: 10.1063/1.4959605
   
   in the mass-spec context:
   * V. Asgeirsson, C. Bauer and S. Grimme, Chem. Sci., 2017, 8, 4879.
     DOI: 10.1039/c7sc00601b
   * J. Koopman and S. Grimme, ACS Omega 2019, 4, 12, 15120-15133.
     DOI: 10.1021/acsomega.9b02011
   
   for metadynamics refer to:
   * S. Grimme, J. Chem. Theory Comput., 2019, 155, 2847-2862
     DOI: 10.1021/acs.jctc.9b00143
   
   for SPH calculations refer to:
   * S. Spicher and S. Grimme, J. Chem. Theory Comput., 2021, 17, 1701-1714
     DOI: 10.1021/acs.jctc.0c01306
   
   for ONIOM refer to:
   * C. Plett, A. Katbashev, S. Ehlert, S. Grimme, M. Bursch,
     Phys. Chem. Chem. Phys., 2023, 25, 17860-17868. DOI: 10.1039/D3CP02178E
   
   for DIPRO refer to:
   * J. Kohn, N. Gildemeister, S. Grimme, D. Fazzi, A. Hansen,
     J. Chem. Phys., 2023, just accepted.
   
   for PTB refer to:
   * S. Grimme, M. Mueller, A. Hansen, J. Chem. Phys., 2023, 158, 124111.
     DOI: 10.1063/5.0137838
   
   with help from (in alphabetical order)
   P. Atkinson, C. Bannwarth, F. Bohle, G. Brandenburg, E. Caldeweyher
   M. Checinski, S. Dohm, S. Ehlert, S. Ehrlich, I. Gerasimov, C. Hölzer
   A. Katbashev, J. Kohn, J. Koopman, C. Lavigne, S. Lehtola, F. März, M. Müller,
   F. Musil, H. Neugebauer, J. Pisarek, C. Plett, P. Pracht, F. Pultar,
   J. Seibert, P. Shushkov, S. Spicher, M. Stahn, M. Steiner, T. Strunk,
   J. Stückrath, T. Rose, and J. Unsleber
   
 * started run on 2025/07/14 at 11:26:39.247     
   ID    Z sym.   atoms
    1   15 P      1
    2    6 C      2, 5, 9-14, 20, 23
    3    1 H      3, 4, 6-8, 15-19, 21, 22, 24-26

           -------------------------------------------------
          |                Calculation Setup                |
           -------------------------------------------------

          program call               : /home/minenky/programs/xtb/xtb-dist/bin/xtb m1_00_PEt2Ph-PBE0-D3-TZ-uniMM_12.xyz --charge 0 --T --ohess extreme --cycles 5000 --acc 0.01 --iterations 5000
          coordinate file            : m1_00_PEt2Ph-PBE0-D3-TZ-uniMM_12.xyz
          omp threads                :                    12

########################################################################
[WARNING] Please study the warnings concerning your input carefully
-1- prog_main_parseArguments: Unknown option '--T' provided
########################################################################

           -------------------------------------------------
          |                 G F N 2 - x T B                 |
           -------------------------------------------------

        Reference                      10.1021/acs.jctc.8b01176
      * Hamiltonian:
        H0-scaling (s, p, d)           1.850000    2.230000    2.230000
        zeta-weighting                 0.500000
      * Dispersion:
        s8                             2.700000
        a1                             0.520000
        a2                             5.000000
        s9                             5.000000
      * Repulsion:
        kExp                           1.500000    1.000000
        rExp                           1.000000
      * Coulomb:
        alpha                          2.000000
        third order                    shell-resolved
        anisotropic                    true
        a3                             3.000000
        a5                             4.000000
        cn-shift                       1.200000
        cn-exp                         4.000000
        max-rad                        5.000000


          ...................................................
          :                      SETUP                      :
          :.................................................:
          :  # basis functions                  65          :
          :  # atomic orbitals                  64          :
          :  # shells                           38          :
          :  # electrons                        60          :
          :  max. iterations                  5000          :
          :  Hamiltonian                  GFN2-xTB          :
          :  restarted?                      false          :
          :  GBSA solvation                  false          :
          :  PC potential                    false          :
          :  electronic temp.          300.0000000     K    :
          :  accuracy                    0.0100000          :
          :  -> integral cutoff          0.4500000E+02      :
          :  -> integral neglect         0.1000000E-09      :
          :  -> SCF convergence          0.1000000E-07 Eh   :
          :  -> wf. convergence          0.1000000E-05 e    :
          :  Broyden damping             0.4000000          :
          :  net charge                          0          :
          :  unpaired electrons                  0          :
          ...................................................

 iter      E             dE          RMSdq      gap      omega  full diag
   1    -32.0131116 -0.320131E+02  0.361E+00    3.96       0.0  T
   2    -32.0586338 -0.455222E-01  0.212E+00    3.41       1.0  T
   3    -32.0584105  0.223298E-03  0.891E-01    3.10       1.0  T
   4    -32.0593590 -0.948451E-03  0.299E-01    3.11       1.0  T
   5    -32.0609862 -0.162725E-02  0.115E-01    3.16       1.0  T
   6    -32.0611895 -0.203304E-03  0.426E-02    3.15       1.0  T
   7    -32.0612032 -0.136729E-04  0.163E-02    3.16       1.2  T
   8    -32.0612041 -0.896180E-06  0.686E-03    3.16       2.9  T
   9    -32.0612046 -0.448933E-06  0.142E-03    3.16      13.8  T
  10    -32.0612046 -0.241620E-07  0.637E-04    3.16      30.8  T
  11    -32.0612046 -0.348813E-09  0.290E-04    3.16      67.7  T
  12    -32.0612046 -0.829971E-09  0.579E-05    3.16     338.7  T
  13    -32.0612046 -0.375877E-11  0.266E-05    3.16     737.1  T
  14    -32.0612046 -0.203926E-11  0.116E-05    3.16    1691.0  T
  15    -32.0612046 -0.158451E-11  0.311E-06    3.16    6315.7  T
  16    -32.0612046 -0.284217E-13  0.161E-06    3.16   12155.2  T

   *** convergence criteria satisfied after 16 iterations ***

         #    Occupation            Energy/Eh            Energy/eV
      -------------------------------------------------------------
         1        2.0000           -0.6591662             -17.9368
       ...           ...                  ...                  ...
        24        2.0000           -0.4375844             -11.9073
        25        2.0000           -0.4242782             -11.5452
        26        2.0000           -0.4204442             -11.4409
        27        2.0000           -0.4094429             -11.1415
        28        2.0000           -0.4052857             -11.0284
        29        2.0000           -0.3995006             -10.8710
        30        2.0000           -0.3527196              -9.5980 (HOMO)
        31                         -0.2366330              -6.4391 (LUMO)
        32                         -0.2252252              -6.1287
        33                         -0.1467426              -3.9931
        34                         -0.1377092              -3.7473
        35                         -0.0896406              -2.4392
       ...                                ...                  ...
        64                          0.7957190              21.6526
      -------------------------------------------------------------
                  HL-Gap            0.1160866 Eh            3.1589 eV
             Fermi-level           -0.2946763 Eh           -8.0185 eV

 SCC (total)                   0 d,  0 h,  0 min,  0.087 sec
 SCC setup                      ...        0 min,  0.000 sec (  0.160%)
 Dispersion                     ...        0 min,  0.000 sec (  0.141%)
 classical contributions        ...        0 min,  0.000 sec (  0.012%)
 integral evaluation            ...        0 min,  0.002 sec (  2.103%)
 iterations                     ...        0 min,  0.083 sec ( 95.465%)
 molecular gradient             ...        0 min,  0.002 sec (  2.010%)
 printout                       ...        0 min,  0.000 sec (  0.091%)

         :::::::::::::::::::::::::::::::::::::::::::::::::::::
         ::                     SUMMARY                     ::
         :::::::::::::::::::::::::::::::::::::::::::::::::::::
         :: total energy             -31.546518222212 Eh    ::
         :: gradient norm              0.053023611036 Eh/a0 ::
         :: HOMO-LUMO gap              3.158876594104 eV    ::
         ::.................................................::
         :: SCC energy               -32.061084676280 Eh    ::
         :: -> isotropic ES            0.004118146532 Eh    ::
         :: -> anisotropic ES          0.006003167012 Eh    ::
         :: -> anisotropic XC          0.022488516884 Eh    ::
         :: -> dispersion             -0.023073267762 Eh    ::
         :: repulsion energy           0.514566454068 Eh    ::
         :: add. restraining           0.000000000000 Eh    ::
         :: total charge               0.000000000000 e     ::
         :::::::::::::::::::::::::::::::::::::::::::::::::::::

      ----------------------------------------------------------- 
     |                   =====================                   |
     |                        A N C O P T                        |
     |                   =====================                   |
     |               Approximate Normal Coordinate               |
     |                Rational Function Optimizer                |
      ----------------------------------------------------------- 
      ----------------------------------------------------------- 
     |                   =====================                   |
     |                        A N C O P T                        |
     |                   =====================                   |
     |               Approximate Normal Coordinate               |
     |                Rational Function Optimizer                |
      ----------------------------------------------------------- 

          ...................................................
          :                      SETUP                      :
          :.................................................:
          :   optimization level           extreme          :
          :   max. optcycles                  5000          :
          :   ANC micro-cycles                  20          :
          :   degrees of freedom                72          :
          :.................................................:
          :   RF solver                   davidson          :
          :   write xtbopt.log                true          :
          :   linear?                        false          :
          :   energy convergence         0.5000000E-07 Eh   :
          :   grad. convergence          0.5000000E-04 Eh/α :
          :   maxmium RF displ.          1.0000000          :
          :   Hlow (freq-cutoff)         0.1000000E-01      :
          :   Hmax (freq-cutoff)         5.0000000          :
          :   S6 in model hess.         20.0000000          :
          ...................................................

generating ANC from model Hessian ...
Using Lindh-Hessian (1995)
 Shifting diagonal of input Hessian by   9.110025640133579E-003
 Lowest  eigenvalues of input Hessian
    0.000000    0.000000    0.000000    0.000000    0.000000    0.000000
    0.010000    0.010154    0.010573    0.010827    0.011484    0.012905
    0.015731    0.017854    0.018452    0.019554    0.020761    0.023765
 Highest eigenvalues
    1.346987    1.534306    1.561918    1.863375    1.965422    1.985605
 

........................................................................
.............................. CYCLE    1 ..............................
........................................................................

 iter      E             dE          RMSdq      gap      omega  full diag
   1    -32.0612046 -0.320612E+02  0.612E-07    3.16       0.0  T
   2    -32.0612046 -0.355271E-13  0.308E-07    3.16   63707.4  T
   3    -32.0612046  0.355271E-13  0.215E-07    3.16   91362.7  T
     SCC iter.                  ...        0 min,  0.073 sec
     gradient                   ...        0 min,  0.002 sec
 * total energy  :   -31.5465182 Eh     change       -0.1421085E-13 Eh
   gradient norm :     0.0530236 Eh/α   predicted     0.0000000E+00 (-100.00%)
   displ. norm   :     0.3555416 α      lambda       -0.1049767E-01
   maximum displ.:     0.1571818 α      in ANC's #8, #13, #11, ...

........................................................................
.............................. CYCLE    2 ..............................
........................................................................

 iter      E             dE          RMSdq      gap      omega  full diag
   1    -32.0656739 -0.320657E+02  0.463E-01    3.50       0.0  T
   2    -32.0660083 -0.334389E-03  0.204E-01    3.59       1.0  T
   3    -32.0660396 -0.313302E-04  0.715E-02    3.64       1.0  T
   4    -32.0660237  0.159815E-04  0.395E-02    3.64       1.0  T
   5    -32.0660525 -0.288136E-04  0.792E-03    3.64       2.5  T
   6    -32.0660531 -0.642726E-06  0.337E-03    3.64       5.8  T
   7    -32.0660531 -0.883343E-08  0.136E-03    3.64      14.4  T
   8    -32.0660531 -0.155409E-07  0.449E-04    3.64      43.7  T
   9    -32.0660531 -0.229397E-08  0.145E-04    3.64     135.6  T
  10    -32.0660531 -0.832543E-10  0.711E-05    3.64     275.7  T
  11    -32.0660531 -0.306386E-10  0.206E-05    3.64     951.5  T
  12    -32.0660531 -0.267875E-11  0.945E-06    3.64    2074.3  T
  13    -32.0660531 -0.234479E-12  0.346E-06    3.64    5673.3  T
     SCC iter.                  ...        0 min,  0.074 sec
     gradient                   ...        0 min,  0.002 sec
 * total energy  :   -31.5520961 Eh     change       -0.5577925E-02 Eh
   gradient norm :     0.0144365 Eh/α   predicted    -0.5912651E-02 (   6.00%)
   displ. norm   :     0.2714038 α      lambda       -0.1639770E-02
   maximum displ.:     0.1422662 α      in ANC's #11, #6, #8, ...

........................................................................
.............................. CYCLE    3 ..............................
........................................................................

 iter      E             dE          RMSdq      gap      omega  full diag
   1    -32.0706823 -0.320707E+02  0.103E-01    3.65       0.0  T
   2    -32.0706846 -0.228631E-05  0.601E-02    3.65       1.0  T
   3    -32.0706833  0.125721E-05  0.114E-02    3.65       1.7  T
   4    -32.0706849 -0.159904E-05  0.386E-03    3.65       5.1  T
   5    -32.0706851 -0.173418E-06  0.153E-03    3.65      12.8  T
   6    -32.0706851 -0.391503E-07  0.667E-04    3.65      29.4  T
   7    -32.0706851 -0.441062E-09  0.174E-04    3.65     112.9  T
   8    -32.0706851 -0.327667E-09  0.749E-05    3.65     261.8  T
   9    -32.0706851 -0.535465E-10  0.322E-05    3.65     608.5  T
  10    -32.0706851 -0.365219E-11  0.124E-05    3.65    1580.7  T
  11    -32.0706851 -0.125056E-11  0.452E-06    3.65    4338.0  T
  12    -32.0706851 -0.163425E-12  0.131E-06    3.65   14959.0  T
     SCC iter.                  ...        0 min,  0.074 sec
     gradient                   ...        0 min,  0.002 sec
 * total energy  :   -31.5532495 Eh     change       -0.1153324E-02 Eh
   gradient norm :     0.0072031 Eh/α   predicted    -0.8802797E-03 ( -23.67%)
   displ. norm   :     0.2746063 α      lambda       -0.7770776E-03
   maximum displ.:     0.1322086 α      in ANC's #6, #11, #1, ...

........................................................................
.............................. CYCLE    4 ..............................
........................................................................

 iter      E             dE          RMSdq      gap      omega  full diag
   1    -32.0731816 -0.320732E+02  0.882E-02    3.65       0.0  T
   2    -32.0731833 -0.173509E-05  0.548E-02    3.65       1.0  T
   3    -32.0731795  0.379566E-05  0.143E-02    3.64       1.4  T
   4    -32.0731839 -0.435541E-05  0.341E-03    3.64       5.8  T
   5    -32.0731840 -0.120872E-06  0.146E-03    3.64      13.5  T
   6    -32.0731840 -0.253204E-07  0.611E-04    3.64      32.1  T
   7    -32.0731840 -0.187555E-09  0.151E-04    3.64     129.8  T
   8    -32.0731840 -0.113850E-09  0.653E-05    3.64     300.4  T
   9    -32.0731840 -0.411617E-10  0.284E-05    3.64     690.8  T
  10    -32.0731840 -0.380851E-11  0.109E-05    3.64    1799.2  T
  11    -32.0731840 -0.369482E-12  0.452E-06    3.64    4340.1  T
  12    -32.0731840 -0.568434E-13  0.121E-06    3.64   16207.1  T
     SCC iter.                  ...        0 min,  0.073 sec
     gradient                   ...        0 min,  0.002 sec
 * total energy  :   -31.5537429 Eh     change       -0.4934023E-03 Eh
   gradient norm :     0.0044000 Eh/α   predicted    -0.4178444E-03 ( -15.31%)
   displ. norm   :     0.1766760 α      lambda       -0.2025566E-03
   maximum displ.:     0.0915958 α      in ANC's #1, #6, #3, ...

........................................................................
.............................. CYCLE    5 ..............................
........................................................................

 iter      E             dE          RMSdq      gap      omega  full diag
   1    -32.0738907 -0.320739E+02  0.518E-02    3.64       0.0  T
   2    -32.0738912 -0.476690E-06  0.304E-02    3.64       1.0  T
   3    -32.0738906  0.539973E-06  0.598E-03    3.63       3.3  T
   4    -32.0738913 -0.655093E-06  0.172E-03    3.64      11.4  T
   5    -32.0738913 -0.259269E-07  0.856E-04    3.64      22.9  T
   6    -32.0738913 -0.705917E-08  0.336E-04    3.64      58.3  T
   7    -32.0738913 -0.829843E-10  0.817E-05    3.64     239.9  T
   8    -32.0738913 -0.486295E-10  0.420E-05    3.64     467.4  T
   9    -32.0738913 -0.183036E-10  0.138E-05    3.64    1418.7  T
  10    -32.0738913 -0.147082E-11  0.640E-06    3.64    3063.1  T
  11    -32.0738913 -0.312639E-12  0.245E-06    3.64    8000.7  T
     SCC iter.                  ...        0 min,  0.073 sec
     gradient                   ...        0 min,  0.002 sec
 * total energy  :   -31.5538933 Eh     change       -0.1503938E-03 Eh
   gradient norm :     0.0034969 Eh/α   predicted    -0.1044406E-03 ( -30.56%)
   displ. norm   :     0.1978176 α      lambda       -0.1627552E-03
   maximum displ.:     0.1086907 α      in ANC's #1, #3, #6, ...

........................................................................
.............................. CYCLE    6 ..............................
........................................................................

 iter      E             dE          RMSdq      gap      omega  full diag
   1    -32.0742090 -0.320742E+02  0.606E-02    3.63       0.0  T
   2    -32.0742094 -0.418465E-06  0.350E-02    3.63       1.0  T
   3    -32.0742093  0.997485E-07  0.345E-03    3.63       5.7  T
   4    -32.0742094 -0.148043E-06  0.152E-03    3.63      12.9  T
   5    -32.0742095 -0.370936E-07  0.663E-04    3.63      29.6  T
   6    -32.0742095 -0.205751E-08  0.275E-04    3.63      71.3  T
   7    -32.0742095  0.298215E-10  0.808E-05    3.63     242.8  T
   8    -32.0742095 -0.786429E-10  0.343E-05    3.63     572.3  T
   9    -32.0742095 -0.746070E-11  0.130E-05    3.63    1510.2  T
  10    -32.0742095 -0.162714E-11  0.587E-06    3.63    3340.8  T
  11    -32.0742095 -0.206057E-12  0.197E-06    3.63    9937.7  T
     SCC iter.                  ...        0 min,  0.073 sec
     gradient                   ...        0 min,  0.002 sec
 * total energy  :   -31.5540168 Eh     change       -0.1234931E-03 Eh
   gradient norm :     0.0025171 Eh/α   predicted    -0.8456331E-04 ( -31.52%)
   displ. norm   :     0.1860754 α      lambda       -0.1176770E-03
   maximum displ.:     0.1141875 α      in ANC's #3, #1, #4, ...

........................................................................
.............................. CYCLE    7 ..............................
........................................................................

 iter      E             dE          RMSdq      gap      omega  full diag
   1    -32.0741962 -0.320742E+02  0.597E-02    3.62       0.0  T
   2    -32.0741965 -0.349336E-06  0.346E-02    3.62       1.0  T
   3    -32.0741965  0.971686E-08  0.326E-03    3.62       6.0  T
   4    -32.0741966 -0.608701E-07  0.109E-03    3.62      18.0  T
   5    -32.0741966 -0.839257E-08  0.429E-04    3.62      45.7  T
   6    -32.0741966 -0.198414E-08  0.248E-04    3.62      79.1  T
   7    -32.0741966 -0.557755E-09  0.530E-05    3.62     369.9  T
   8    -32.0741966 -0.184457E-10  0.235E-05    3.62     835.7  T
   9    -32.0741966 -0.211742E-11  0.881E-06    3.62    2224.8  T
  10    -32.0741966 -0.554223E-12  0.453E-06    3.62    4333.0  T
     SCC iter.                  ...        0 min,  0.073 sec
     gradient                   ...        0 min,  0.002 sec
 * total energy  :   -31.5541093 Eh     change       -0.9255320E-04 Eh
   gradient norm :     0.0025182 Eh/α   predicted    -0.6087898E-04 ( -34.22%)
   displ. norm   :     0.1744148 α      lambda       -0.9108033E-04
   maximum displ.:     0.1123741 α      in ANC's #3, #1, #4, ...

........................................................................
.............................. CYCLE    8 ..............................
........................................................................

 iter      E             dE          RMSdq      gap      omega  full diag
   1    -32.0741018 -0.320741E+02  0.560E-02    3.62       0.0  T
   2    -32.0741021 -0.303114E-06  0.326E-02    3.62       1.0  T
   3    -32.0741020  0.761636E-07  0.381E-03    3.63       5.1  T
   4    -32.0741021 -0.108587E-06  0.139E-03    3.63      14.1  T
   5    -32.0741022 -0.243778E-07  0.493E-04    3.62      39.8  T
   6    -32.0741022 -0.360059E-08  0.239E-04    3.62      82.1  T
   7    -32.0741022 -0.200046E-09  0.481E-05    3.62     407.8  T
   8    -32.0741022 -0.169322E-10  0.170E-05    3.62    1152.6  T
   9    -32.0741022 -0.166267E-11  0.656E-06    3.62    2988.0  T
  10    -32.0741022 -0.724754E-12  0.295E-06    3.62    6652.9  T
     SCC iter.                  ...        0 min,  0.077 sec
     gradient                   ...        0 min,  0.002 sec
 * total energy  :   -31.5541827 Eh     change       -0.7341478E-04 Eh
   gradient norm :     0.0026354 Eh/α   predicted    -0.4692564E-04 ( -36.08%)
   displ. norm   :     0.1791624 α      lambda       -0.7932952E-04
   maximum displ.:     0.1163006 α      in ANC's #1, #3, #10, ...

........................................................................
.............................. CYCLE    9 ..............................
........................................................................

 iter      E             dE          RMSdq      gap      omega  full diag
   1    -32.0739693 -0.320740E+02  0.556E-02    3.63       0.0  T
   2    -32.0739695 -0.256048E-06  0.325E-02    3.63       1.0  T
   3    -32.0739695  0.668538E-07  0.351E-03    3.63       5.6  T
   4    -32.0739696 -0.974963E-07  0.136E-03    3.63      14.4  T
   5    -32.0739696 -0.241636E-07  0.478E-04    3.63      41.1  T
   6    -32.0739696 -0.265277E-08  0.232E-04    3.63      84.6  T
   7    -32.0739696 -0.147082E-09  0.448E-05    3.63     437.7  T
   8    -32.0739696 -0.254943E-10  0.173E-05    3.63    1131.1  T
   9    -32.0739696 -0.322586E-11  0.650E-06    3.63    3018.3  T
  10    -32.0739696 -0.298428E-12  0.215E-06    3.63    9111.2  T
     SCC iter.                  ...        0 min,  0.074 sec
     gradient                   ...        0 min,  0.002 sec
 * total energy  :   -31.5542474 Eh     change       -0.6462656E-04 Eh
   gradient norm :     0.0025305 Eh/α   predicted    -0.4093836E-04 ( -36.65%)
   displ. norm   :     0.2107981 α      lambda       -0.7992692E-04
   maximum displ.:     0.1379149 α      in ANC's #1, #3, #5, ...

........................................................................
.............................. CYCLE   10 ..............................
........................................................................

 iter      E             dE          RMSdq      gap      omega  full diag
   1    -32.0737598 -0.320738E+02  0.632E-02    3.63       0.0  T
   2    -32.0737601 -0.243289E-06  0.370E-02    3.63       1.0  T
   3    -32.0737601  0.139966E-07  0.304E-03    3.63       6.4  T
   4    -32.0737601 -0.615753E-07  0.114E-03    3.63      17.2  T
   5    -32.0737601 -0.132688E-07  0.483E-04    3.63      40.6  T
   6    -32.0737601 -0.254471E-08  0.240E-04    3.63      81.6  T
   7    -32.0737601 -0.180322E-09  0.423E-05    3.63     463.7  T
   8    -32.0737601 -0.233271E-10  0.180E-05    3.63    1086.8  T
   9    -32.0737601 -0.228795E-11  0.761E-06    3.63    2576.8  T
  10    -32.0737601 -0.326850E-12  0.196E-06    3.63   10026.1  T
     SCC iter.                  ...        0 min,  0.073 sec
     gradient                   ...        0 min,  0.002 sec
 * total energy  :   -31.5543119 Eh     change       -0.6452462E-04 Eh
   gradient norm :     0.0026347 Eh/α   predicted    -0.4173984E-04 ( -35.31%)
   displ. norm   :     0.2596127 α      lambda       -0.8581268E-04
   maximum displ.:     0.1682316 α      in ANC's #1, #3, #5, ...

........................................................................
.............................. CYCLE   11 ..............................
........................................................................

 iter      E             dE          RMSdq      gap      omega  full diag
   1    -32.0734361 -0.320734E+02  0.768E-02    3.64       0.0  T
   2    -32.0734364 -0.282666E-06  0.450E-02    3.64       1.0  T
   3    -32.0734364 -0.500754E-07  0.282E-03    3.64       7.0  T
   4    -32.0734364 -0.299909E-07  0.951E-04    3.64      20.6  T
   5    -32.0734364 -0.339789E-08  0.513E-04    3.64      38.2  T
   6    -32.0734364 -0.172690E-08  0.250E-04    3.64      78.6  T
   7    -32.0734364 -0.396533E-09  0.446E-05    3.64     440.1  T
   8    -32.0734364 -0.165201E-10  0.195E-05    3.64    1004.4  T
   9    -32.0734364 -0.554223E-12  0.851E-06    3.64    2303.8  T
  10    -32.0734364 -0.952127E-12  0.231E-06    3.64    8506.2  T
     SCC iter.                  ...        0 min,  0.081 sec
     gradient                   ...        0 min,  0.002 sec
 * total energy  :   -31.5543787 Eh     change       -0.6685987E-04 Eh
   gradient norm :     0.0031516 Eh/α   predicted    -0.4579844E-04 ( -31.50%)
   displ. norm   :     0.2597003 α      lambda       -0.8226471E-04
   maximum displ.:     0.1671491 α      in ANC's #1, #3, #2, ...

........................................................................
.............................. CYCLE   12 ..............................
........................................................................

 iter      E             dE          RMSdq      gap      omega  full diag
   1    -32.0734237 -0.320734E+02  0.776E-02    3.64       0.0  T
   2    -32.0734239 -0.264385E-06  0.454E-02    3.64       1.0  T
   3    -32.0734240 -0.654370E-07  0.233E-03    3.64       8.4  T
   4    -32.0734240 -0.124542E-07  0.965E-04    3.64      20.3  T
   5    -32.0734240 -0.640384E-08  0.534E-04    3.64      36.7  T
   6    -32.0734240 -0.237573E-08  0.221E-04    3.64      88.6  T
   7    -32.0734240 -0.119861E-09  0.404E-05    3.64     485.7  T
   8    -32.0734240 -0.170104E-10  0.196E-05    3.64     999.1  T
   9    -32.0734240 -0.149925E-11  0.815E-06    3.64    2406.6  T
  10    -32.0734240 -0.689226E-12  0.260E-06    3.64    7552.0  T
     SCC iter.                  ...        0 min,  0.074 sec
     gradient                   ...        0 min,  0.002 sec
 * total energy  :   -31.5544433 Eh     change       -0.6456342E-04 Eh
   gradient norm :     0.0032603 Eh/α   predicted    -0.4390834E-04 ( -31.99%)
   displ. norm   :     0.2587236 α      lambda       -0.8835077E-04
   maximum displ.:     0.1629526 α      in ANC's #1, #3, #2, ...

........................................................................
.............................. CYCLE   13 ..............................
........................................................................

 iter      E             dE          RMSdq      gap      omega  full diag
   1    -32.0738770 -0.320739E+02  0.797E-02    3.64       0.0  T
   2    -32.0738773 -0.298604E-06  0.465E-02    3.64       1.0  T
   3    -32.0738773  0.485665E-08  0.306E-03    3.64       6.4  T
   4    -32.0738774 -0.673503E-07  0.168E-03    3.64      11.7  T
   5    -32.0738774 -0.408851E-07  0.526E-04    3.64      37.3  T
   6    -32.0738774 -0.253344E-09  0.217E-04    3.64      90.4  T
   7    -32.0738774 -0.306933E-09  0.551E-05    3.64     356.2  T
   8    -32.0738774 -0.532552E-10  0.214E-05    3.64     917.1  T
   9    -32.0738774 -0.384404E-11  0.974E-06    3.64    2014.5  T
  10    -32.0738774 -0.724754E-12  0.363E-06    3.64    5402.5  T
     SCC iter.                  ...        0 min,  0.074 sec
     gradient                   ...        0 min,  0.002 sec
 * total energy  :   -31.5545115 Eh     change       -0.6817722E-04 Eh
   gradient norm :     0.0026208 Eh/α   predicted    -0.4713657E-04 ( -30.86%)
   displ. norm   :     0.2313486 α      lambda       -0.7350287E-04
   maximum displ.:     0.1357751 α      in ANC's #1, #2, #4, ...

........................................................................
.............................. CYCLE   14 ..............................
........................................................................

 iter      E             dE          RMSdq      gap      omega  full diag
   1    -32.0744231 -0.320744E+02  0.734E-02    3.64       0.0  T
   2    -32.0744234 -0.314309E-06  0.426E-02    3.65       1.0  T
   3    -32.0744234  0.704583E-07  0.365E-03    3.64       5.4  T
   4    -32.0744235 -0.133335E-06  0.172E-03    3.65      11.4  T
   5    -32.0744235 -0.356853E-07  0.633E-04    3.65      31.0  T
   6    -32.0744235 -0.119854E-08  0.251E-04    3.65      78.0  T
   7    -32.0744235 -0.100599E-09  0.734E-05    3.65     267.1  T
   8    -32.0744235 -0.126882E-09  0.205E-05    3.65     958.4  T
   9    -32.0744235 -0.500933E-11  0.904E-06    3.65    2169.0  T
  10    -32.0744235 -0.369482E-12  0.388E-06    3.65    5059.0  T
     SCC iter.                  ...        0 min,  0.073 sec
     gradient                   ...        0 min,  0.002 sec
 * total energy  :   -31.5545660 Eh     change       -0.5448581E-04 Eh
   gradient norm :     0.0017732 Eh/α   predicted    -0.3871911E-04 ( -28.94%)
   displ. norm   :     0.2600149 α      lambda       -0.4111648E-04
   maximum displ.:     0.1427920 α      in ANC's #2, #1, #4, ...

........................................................................
.............................. CYCLE   15 ..............................
........................................................................

 iter      E             dE          RMSdq      gap      omega  full diag
   1    -32.0748462 -0.320748E+02  0.835E-02    3.65       0.0  T
   2    -32.0748467 -0.450976E-06  0.484E-02    3.65       1.0  T
   3    -32.0748466  0.820459E-07  0.445E-03    3.65       4.4  T
   4    -32.0748467 -0.176866E-06  0.186E-03    3.65      10.6  T
   5    -32.0748468 -0.303340E-07  0.804E-04    3.65      24.4  T
   6    -32.0748468 -0.418921E-08  0.310E-04    3.65      63.3  T
   7    -32.0748468 -0.737259E-10  0.751E-05    3.65     261.1  T
   8    -32.0748468 -0.136389E-09  0.237E-05    3.65     827.1  T
   9    -32.0748468 -0.893863E-11  0.100E-05    3.65    1961.4  T
  10    -32.0748468 -0.270006E-12  0.426E-06    3.65    4599.9  T
     SCC iter.                  ...        0 min,  0.073 sec
     gradient                   ...        0 min,  0.002 sec
 * total energy  :   -31.5546030 Eh     change       -0.3698365E-04 Eh
   gradient norm :     0.0015280 Eh/α   predicted    -0.2117922E-04 ( -42.73%)
   displ. norm   :     0.0667526 α      lambda       -0.1146856E-04
   maximum displ.:     0.0511207 α      in ANC's #2, #4, #1, ...

........................................................................
.............................. CYCLE   16 ..............................
........................................................................

 iter      E             dE          RMSdq      gap      omega  full diag
   1    -32.0754055 -0.320754E+02  0.234E-02    3.65       0.0  T
   2    -32.0754055 -0.401864E-07  0.138E-02    3.65       1.4  T
   3    -32.0754055  0.180586E-08  0.125E-03    3.65      15.7  T
   4    -32.0754055 -0.107553E-07  0.400E-04    3.65      49.1  T
   5    -32.0754055 -0.462329E-09  0.169E-04    3.65     116.0  T
   6    -32.0754055 -0.184940E-09  0.890E-05    3.65     220.5  T
   7    -32.0754055 -0.324363E-10  0.158E-05    3.65    1242.9  T
   8    -32.0754055 -0.112976E-11  0.444E-06    3.65    4416.4  T
   9    -32.0754055 -0.355271E-13  0.197E-06    3.65    9962.4  T
     SCC iter.                  ...        0 min,  0.073 sec
     gradient                   ...        0 min,  0.002 sec
 * total energy  :   -31.5546167 Eh     change       -0.1374662E-04 Eh
   gradient norm :     0.0013450 Eh/α   predicted    -0.5748144E-05 ( -58.19%)
   displ. norm   :     0.0922942 α      lambda       -0.1635719E-04
   maximum displ.:     0.0652497 α      in ANC's #2, #1, #11, ...

........................................................................
.............................. CYCLE   17 ..............................
........................................................................

 iter      E             dE          RMSdq      gap      omega  full diag
   1    -32.0742116 -0.320742E+02  0.324E-02    3.65       0.0  T
   2    -32.0742119 -0.262612E-06  0.190E-02    3.65       1.0  T
   3    -32.0742118  0.547793E-07  0.431E-03    3.65       4.5  T
   4    -32.0742119 -0.980983E-07  0.902E-04    3.65      21.7  T
   5    -32.0742119  0.600345E-09  0.517E-04    3.65      37.9  T
   6    -32.0742119 -0.231447E-08  0.248E-04    3.65      79.2  T
   7    -32.0742119 -0.264365E-09  0.786E-05    3.65     249.4  T
   8    -32.0742119 -0.596856E-11  0.173E-05    3.65    1131.1  T
   9    -32.0742119 -0.220268E-11  0.782E-06    3.65    2506.7  T
  10    -32.0742119 -0.248690E-12  0.266E-06    3.65    7369.4  T
     SCC iter.                  ...        0 min,  0.073 sec
     gradient                   ...        0 min,  0.002 sec
 * total energy  :   -31.5546291 Eh     change       -0.1238234E-04 Eh
   gradient norm :     0.0016133 Eh/α   predicted    -0.8210744E-05 ( -33.69%)
   displ. norm   :     0.1099376 α      lambda       -0.1777978E-04
   maximum displ.:     0.0593172 α      in ANC's #5, #2, #3, ...

........................................................................
.............................. CYCLE   18 ..............................
........................................................................

 iter      E             dE          RMSdq      gap      omega  full diag
   1    -32.0753754 -0.320754E+02  0.404E-02    3.65       0.0  T
   2    -32.0753756 -0.188046E-06  0.235E-02    3.65       1.0  T
   3    -32.0753755  0.277438E-07  0.264E-03    3.65       7.4  T
   4    -32.0753756 -0.536807E-07  0.727E-04    3.65      27.0  T
   5    -32.0753756 -0.413688E-08  0.479E-04    3.65      40.9  T
   6    -32.0753756 -0.212378E-08  0.153E-04    3.65     128.1  T
   7    -32.0753756 -0.154976E-09  0.505E-05    3.65     388.6  T
   8    -32.0753756 -0.140545E-10  0.168E-05    3.65    1169.8  T
   9    -32.0753756 -0.211742E-11  0.761E-06    3.65    2578.0  T
  10    -32.0753756 -0.177636E-12  0.267E-06    3.65    7346.8  T
     SCC iter.                  ...        0 min,  0.073 sec
     gradient                   ...        0 min,  0.002 sec
 * total energy  :   -31.5546399 Eh     change       -0.1081938E-04 Eh
   gradient norm :     0.0014695 Eh/α   predicted    -0.8938485E-05 ( -17.38%)
   displ. norm   :     0.0420473 α      lambda       -0.6171875E-05
   maximum displ.:     0.0277310 α      in ANC's #1, #2, #4, ...

........................................................................
.............................. CYCLE   19 ..............................
........................................................................

 iter      E             dE          RMSdq      gap      omega  full diag
   1    -32.0750012 -0.320750E+02  0.168E-02    3.65       0.0  T
   2    -32.0750013 -0.469433E-07  0.971E-03    3.65       2.0  T
   3    -32.0750013  0.312480E-08  0.124E-03    3.65      15.8  T
   4    -32.0750013 -0.420059E-08  0.652E-04    3.65      30.1  T
   5    -32.0750013 -0.634990E-08  0.183E-04    3.65     107.4  T
   6    -32.0750013 -0.109978E-09  0.802E-05    3.65     244.5  T
   7    -32.0750013 -0.143459E-10  0.349E-05    3.65     561.2  T
   8    -32.0750013 -0.944311E-11  0.800E-06    3.65    2452.8  T
   9    -32.0750013 -0.916600E-12  0.413E-06    3.65    4752.7  T
     SCC iter.                  ...        0 min,  0.073 sec
     gradient                   ...        0 min,  0.002 sec
 * total energy  :   -31.5546466 Eh     change       -0.6743217E-05 Eh
   gradient norm :     0.0008313 Eh/α   predicted    -0.3088701E-05 ( -54.20%)
   displ. norm   :     0.0693144 α      lambda       -0.8085020E-05
   maximum displ.:     0.0440305 α      in ANC's #1, #2, #4, ...

........................................................................
.............................. CYCLE   20 ..............................
........................................................................

 iter      E             dE          RMSdq      gap      omega  full diag
   1    -32.0747104 -0.320747E+02  0.271E-02    3.65       0.0  T
   2    -32.0747106 -0.114290E-06  0.155E-02    3.65       1.3  T
   3    -32.0747105  0.184594E-07  0.220E-03    3.65       8.9  T
   4    -32.0747106 -0.230105E-07  0.103E-03    3.65      19.1  T
   5    -32.0747106 -0.161610E-07  0.324E-04    3.65      60.5  T
   6    -32.0747106 -0.864333E-09  0.144E-04    3.65     135.9  T
   7    -32.0747106 -0.321663E-10  0.387E-05    3.65     506.9  T
   8    -32.0747106 -0.293738E-10  0.994E-06    3.65    1972.5  T
   9    -32.0747106 -0.122213E-11  0.495E-06    3.65    3963.8  T
     SCC iter.                  ...        0 min,  0.073 sec
     gradient                   ...        0 min,  0.002 sec
 * total energy  :   -31.5546529 Eh     change       -0.6261713E-05 Eh
   gradient norm :     0.0007044 Eh/α   predicted    -0.4052622E-05 ( -35.28%)
   displ. norm   :     0.0496553 α      lambda       -0.3114079E-05
   maximum displ.:     0.0330186 α      in ANC's #2, #1, #5, ...
 * RMSD in coord.:     0.5097293 α      energy gain  -0.8134681E-02 Eh

generating ANC from model Hessian ...
Using Lindh-Hessian (1995)
 Shifting diagonal of input Hessian by   9.144554450061402E-003
 Lowest  eigenvalues of input Hessian
    0.000000    0.000000    0.000000    0.000000    0.000000    0.000000
    0.010000    0.010191    0.010759    0.010978    0.011246    0.012882
    0.015518    0.017326    0.017911    0.018891    0.019947    0.024158
 Highest eigenvalues
    1.363423    1.555052    1.572214    1.881456    1.987780    2.003694
 

........................................................................
.............................. CYCLE   21 ..............................
........................................................................

 iter      E             dE          RMSdq      gap      omega  full diag
   1    -32.0746532 -0.320747E+02  0.198E-02    3.65       0.0  T
   2    -32.0746532 -0.290256E-07  0.115E-02    3.65       1.7  T
   3    -32.0746532  0.977582E-08  0.112E-03    3.65      17.5  T
   4    -32.0746532 -0.133400E-07  0.492E-04    3.65      39.9  T
   5    -32.0746532 -0.390911E-08  0.135E-04    3.65     145.6  T
   6    -32.0746532 -0.707843E-10  0.672E-05    3.65     292.0  T
   7    -32.0746532 -0.568434E-11  0.215E-05    3.65     913.8  T
   8    -32.0746532 -0.721911E-11  0.672E-06    3.65    2916.6  T
   9    -32.0746532 -0.596856E-12  0.185E-06    3.65   10629.2  T
     SCC iter.                  ...        0 min,  0.077 sec
     gradient                   ...        0 min,  0.002 sec
 * total energy  :   -31.5546560 Eh     change       -0.3073562E-05 Eh
   gradient norm :     0.0006608 Eh/α   predicted     0.0000000E+00 (-100.00%)
   displ. norm   :     0.0168355 α      lambda       -0.4675296E-06
   maximum displ.:     0.0106988 α      in ANC's #1, #4, #8, ...

........................................................................
.............................. CYCLE   22 ..............................
........................................................................

 iter      E             dE          RMSdq      gap      omega  full diag
   1    -32.0750409 -0.320750E+02  0.649E-03    3.65       0.0  T
   2    -32.0750409 -0.102358E-07  0.392E-03    3.65       5.0  T
   3    -32.0750409  0.118097E-08  0.649E-04    3.65      30.2  T
   4    -32.0750409 -0.281386E-08  0.178E-04    3.65     110.4  T
   5    -32.0750409 -0.130029E-11  0.921E-05    3.65     212.9  T
   6    -32.0750409 -0.553797E-10  0.350E-05    3.65     561.1  T
   7    -32.0750409 -0.621014E-11  0.139E-05    3.65    1412.4  T
   8    -32.0750409 -0.249401E-11  0.335E-06    3.65    5852.6  T
   9    -32.0750409 -0.355271E-13  0.148E-06    3.65   13207.1  T
     SCC iter.                  ...        0 min,  0.073 sec
     gradient                   ...        0 min,  0.002 sec
 * total energy  :   -31.5546584 Eh     change       -0.2403485E-05 Eh
   gradient norm :     0.0002301 Eh/α   predicted    -0.1110754E-05 ( -53.79%)
   displ. norm   :     0.0332581 α      lambda       -0.2467716E-05
   maximum displ.:     0.0208328 α      in ANC's #1, #4, #8, ...

........................................................................
.............................. CYCLE   23 ..............................
........................................................................

 iter      E             dE          RMSdq      gap      omega  full diag
   1    -32.0751617 -0.320752E+02  0.117E-02    3.65       0.0  T
   2    -32.0751618 -0.818558E-08  0.699E-03    3.65       2.8  T
   3    -32.0751618  0.284636E-09  0.685E-04    3.66      28.6  T
   4    -32.0751618 -0.259910E-08  0.195E-04    3.66     100.7  T
   5    -32.0751618  0.879581E-10  0.113E-04    3.66     173.7  T
   6    -32.0751618 -0.150827E-09  0.475E-05    3.65     412.8  T
   7    -32.0751618 -0.127116E-10  0.852E-06    3.65    2302.7  T
   8    -32.0751618 -0.540012E-12  0.344E-06    3.65    5701.2  T
     SCC iter.                  ...        0 min,  0.072 sec
     gradient                   ...        0 min,  0.002 sec
 * total energy  :   -31.5546613 Eh     change       -0.2900975E-05 Eh
   gradient norm :     0.0005241 Eh/α   predicted    -0.1237570E-05 ( -57.34%)
   displ. norm   :     0.0491615 α      lambda       -0.2817526E-05
   maximum displ.:     0.0314050 α      in ANC's #1, #4, #5, ...

........................................................................
.............................. CYCLE   24 ..............................
........................................................................

 iter      E             dE          RMSdq      gap      omega  full diag
   1    -32.0750515 -0.320751E+02  0.168E-02    3.65       0.0  T
   2    -32.0750515 -0.120987E-07  0.986E-03    3.65       2.0  T
   3    -32.0750515 -0.129138E-08  0.535E-04    3.65      36.6  T
   4    -32.0750515 -0.198426E-08  0.301E-04    3.65      65.2  T
   5    -32.0750515 -0.114773E-08  0.121E-04    3.65     162.7  T
   6    -32.0750515 -0.550955E-10  0.419E-05    3.65     467.6  T
   7    -32.0750515 -0.333955E-11  0.133E-05    3.65    1471.4  T
   8    -32.0750515 -0.362377E-11  0.373E-06    3.65    5258.1  T
   9    -32.0750515 -0.120792E-12  0.149E-06    3.65   13155.3  T
     SCC iter.                  ...        0 min,  0.073 sec
     gradient                   ...        0 min,  0.002 sec
 * total energy  :   -31.5546647 Eh     change       -0.3396151E-05 Eh
   gradient norm :     0.0005476 Eh/α   predicted    -0.1415477E-05 ( -58.32%)
   displ. norm   :     0.0548101 α      lambda       -0.2653128E-05
   maximum displ.:     0.0361114 α      in ANC's #1, #4, #5, ...

........................................................................
.............................. CYCLE   25 ..............................
........................................................................

 iter      E             dE          RMSdq      gap      omega  full diag
   1    -32.0749630 -0.320750E+02  0.191E-02    3.65       0.0  T
   2    -32.0749630 -0.245811E-07  0.111E-02    3.66       1.8  T
   3    -32.0749630  0.599375E-08  0.108E-03    3.66      18.2  T
   4    -32.0749630 -0.103165E-07  0.473E-04    3.66      41.4  T
   5    -32.0749630 -0.235735E-08  0.169E-04    3.66     116.2  T
   6    -32.0749630 -0.115769E-09  0.751E-05    3.66     261.3  T
   7    -32.0749630 -0.186162E-10  0.207E-05    3.66     945.3  T
   8    -32.0749630 -0.393641E-11  0.624E-06    3.66    3143.2  T
   9    -32.0749630 -0.923706E-12  0.244E-06    3.66    8050.0  T
     SCC iter.                  ...        0 min,  0.076 sec
     gradient                   ...        0 min,  0.003 sec
 * total energy  :   -31.5546678 Eh     change       -0.3116730E-05 Eh
   gradient norm :     0.0003390 Eh/α   predicted    -0.1330978E-05 ( -57.30%)
   displ. norm   :     0.0411819 α      lambda       -0.1636981E-05
   maximum displ.:     0.0290960 α      in ANC's #1, #5, #4, ...

........................................................................
.............................. CYCLE   26 ..............................
........................................................................

 iter      E             dE          RMSdq      gap      omega  full diag
   1    -32.0749092 -0.320749E+02  0.144E-02    3.66       0.0  T
   2    -32.0749092 -0.183864E-07  0.836E-03    3.66       2.3  T
   3    -32.0749092  0.680965E-08  0.101E-03    3.66      19.4  T
   4    -32.0749092 -0.918457E-08  0.432E-04    3.66      45.4  T
   5    -32.0749092 -0.243378E-08  0.144E-04    3.66     136.0  T
   6    -32.0749092 -0.115527E-09  0.674E-05    3.66     290.9  T
   7    -32.0749092 -0.684963E-11  0.137E-05    3.66    1432.3  T
   8    -32.0749092 -0.354561E-11  0.425E-06    3.66    4617.2  T
   9    -32.0749092 -0.270006E-12  0.148E-06    3.66   13253.4  T
     SCC iter.                  ...        0 min,  0.073 sec
     gradient                   ...        0 min,  0.002 sec
 * total energy  :   -31.5546697 Eh     change       -0.1949540E-05 Eh
   gradient norm :     0.0001201 Eh/α   predicted    -0.8224362E-06 ( -57.81%)
   displ. norm   :     0.0257877 α      lambda       -0.9165470E-06
   maximum displ.:     0.0197919 α      in ANC's #1, #5, #2, ...

........................................................................
.............................. CYCLE   27 ..............................
........................................................................

 iter      E             dE          RMSdq      gap      omega  full diag
   1    -32.0749142 -0.320749E+02  0.937E-03    3.66       0.0  T
   2    -32.0749142 -0.691627E-08  0.539E-03    3.66       3.6  T
   3    -32.0749142  0.313523E-08  0.644E-04    3.66      30.4  T
   4    -32.0749142 -0.405994E-08  0.269E-04    3.66      72.8  T
   5    -32.0749142 -0.101496E-08  0.819E-05    3.66     239.5  T
   6    -32.0749142 -0.331539E-10  0.392E-05    3.66     500.3  T
   7    -32.0749142 -0.717648E-12  0.685E-06    3.66    2864.4  T
   8    -32.0749142 -0.104450E-11  0.242E-06    3.66    8107.6  T
     SCC iter.                  ...        0 min,  0.072 sec
     gradient                   ...        0 min,  0.002 sec
 * total energy  :   -31.5546709 Eh     change       -0.1181051E-05 Eh
   gradient norm :     0.0001351 Eh/α   predicted    -0.4676309E-06 ( -60.41%)
   displ. norm   :     0.0193661 α      lambda       -0.7335091E-06
   maximum displ.:     0.0155431 α      in ANC's #1, #5, #10, ...

........................................................................
.............................. CYCLE   28 ..............................
........................................................................

 iter      E             dE          RMSdq      gap      omega  full diag
   1    -32.0749417 -0.320749E+02  0.687E-03    3.66       0.0  T
   2    -32.0749417 -0.584539E-08  0.394E-03    3.66       5.0  T
   3    -32.0749417  0.107896E-09  0.432E-04    3.66      45.4  T
   4    -32.0749417 -0.228013E-10  0.235E-04    3.66      83.4  T
   5    -32.0749417 -0.115420E-08  0.505E-05    3.66     388.7  T
   6    -32.0749417  0.753175E-12  0.198E-05    3.66     991.8  T
   7    -32.0749417 -0.371614E-11  0.648E-06    3.66    3027.5  T
   8    -32.0749417 -0.532907E-12  0.186E-06    3.66   10545.7  T
     SCC iter.                  ...        0 min,  0.072 sec
     gradient                   ...        0 min,  0.002 sec
 * total energy  :   -31.5546719 Eh     change       -0.9382377E-06 Eh
   gradient norm :     0.0001755 Eh/α   predicted    -0.3673377E-06 ( -60.85%)
   displ. norm   :     0.0179085 α      lambda       -0.6469506E-06
   maximum displ.:     0.0144902 α      in ANC's #1, #10, #5, ...

........................................................................
.............................. CYCLE   29 ..............................
........................................................................

 iter      E             dE          RMSdq      gap      omega  full diag
   1    -32.0749413 -0.320749E+02  0.683E-03    3.66       0.0  T
   2    -32.0749413 -0.364233E-08  0.393E-03    3.66       5.0  T
   3    -32.0749413  0.539465E-09  0.379E-04    3.66      51.7  T
   4    -32.0749413 -0.101296E-08  0.174E-04    3.66     112.7  T
   5    -32.0749413 -0.361851E-09  0.667E-05    3.66     294.1  T
   6    -32.0749413 -0.493259E-10  0.294E-05    3.66     666.4  T
   7    -32.0749413 -0.143530E-11  0.664E-06    3.66    2952.8  T
   8    -32.0749413 -0.447642E-12  0.239E-06    3.66    8195.8  T
     SCC iter.                  ...        0 min,  0.073 sec
     gradient                   ...        0 min,  0.002 sec
 * total energy  :   -31.5546727 Eh     change       -0.8047517E-06 Eh
   gradient norm :     0.0001426 Eh/α   predicted    -0.3259141E-06 ( -59.50%)
   displ. norm   :     0.0159821 α      lambda       -0.5158532E-06
   maximum displ.:     0.0133821 α      in ANC's #1, #10, #3, ...

........................................................................
.............................. CYCLE   30 ..............................
........................................................................

 iter      E             dE          RMSdq      gap      omega  full diag
   1    -32.0749601 -0.320750E+02  0.591E-03    3.66       0.0  T
   2    -32.0749601 -0.575247E-08  0.341E-03    3.66       5.7  T
   3    -32.0749601 -0.358014E-09  0.379E-04    3.66      51.8  T
   4    -32.0749601 -0.310685E-09  0.144E-04    3.66     136.4  T
   5    -32.0749601 -0.982041E-10  0.511E-05    3.66     383.8  T
   6    -32.0749601 -0.212523E-10  0.248E-05    3.66     789.8  T
   7    -32.0749601 -0.161293E-11  0.599E-06    3.66    3275.1  T
   8    -32.0749601 -0.120792E-12  0.208E-06    3.66    9434.5  T
     SCC iter.                  ...        0 min,  0.072 sec
     gradient                   ...        0 min,  0.002 sec
 * total energy  :   -31.5546733 Eh     change       -0.6432085E-06 Eh
   gradient norm :     0.0001001 Eh/α   predicted    -0.2611531E-06 ( -59.40%)
   displ. norm   :     0.0122695 α      lambda       -0.3784427E-06
   maximum displ.:     0.0106869 α      in ANC's #1, #10, #3, ...

........................................................................
.............................. CYCLE   31 ..............................
........................................................................

 iter      E             dE          RMSdq      gap      omega  full diag
   1    -32.0749708 -0.320750E+02  0.472E-03    3.66       0.0  T
   2    -32.0749708 -0.224333E-08  0.274E-03    3.66       7.2  T
   3    -32.0749708  0.731220E-10  0.310E-04    3.66      63.2  T
   4    -32.0749708 -0.488946E-09  0.106E-04    3.66     184.4  T
   5    -32.0749708 -0.281020E-10  0.508E-05    3.66     385.9  T
   6    -32.0749708 -0.256080E-10  0.236E-05    3.66     832.5  T
   7    -32.0749708 -0.937916E-12  0.464E-06    3.66    4227.3  T
   8    -32.0749708 -0.426326E-13  0.136E-06    3.66   14456.7  T
     SCC iter.                  ...        0 min,  0.072 sec
     gradient                   ...        0 min,  0.002 sec
 * total energy  :   -31.5546738 Eh     change       -0.5005521E-06 Eh
   gradient norm :     0.0000765 Eh/α   predicted    -0.1925843E-06 ( -61.53%)
   displ. norm   :     0.0110863 α      lambda       -0.3491121E-06
   maximum displ.:     0.0092223 α      in ANC's #1, #3, #5, ...

........................................................................
.............................. CYCLE   32 ..............................
........................................................................

 iter      E             dE          RMSdq      gap      omega  full diag
   1    -32.0749789 -0.320750E+02  0.384E-03    3.66       0.0  T
   2    -32.0749789 -0.109947E-08  0.224E-03    3.66       8.8  T
   3    -32.0749789  0.141490E-09  0.233E-04    3.66      84.3  T
   4    -32.0749789 -0.391651E-09  0.754E-05    3.66     260.1  T
   5    -32.0749789 -0.170104E-10  0.417E-05    3.66     469.8  T
   6    -32.0749789 -0.204849E-10  0.172E-05    3.66    1141.3  T
   7    -32.0749789 -0.298428E-12  0.350E-06    3.66    5605.1  T
   8    -32.0749789 -0.135003E-12  0.125E-06    3.66   15675.6  T
     SCC iter.                  ...        0 min,  0.072 sec
     gradient                   ...        0 min,  0.002 sec
 * total energy  :   -31.5546743 Eh     change       -0.4788202E-06 Eh
   gradient norm :     0.0000909 Eh/α   predicted    -0.1760482E-06 ( -63.23%)
   displ. norm   :     0.0129307 α      lambda       -0.3956245E-06
   maximum displ.:     0.0099938 α      in ANC's #1, #5, #3, ...

........................................................................
.............................. CYCLE   33 ..............................
........................................................................

 iter      E             dE          RMSdq      gap      omega  full diag
   1    -32.0749683 -0.320750E+02  0.405E-03    3.66       0.0  T
   2    -32.0749683 -0.158110E-08  0.235E-03    3.66       8.3  T
   3    -32.0749683  0.334524E-10  0.231E-04    3.66      84.9  T
   4    -32.0749683 -0.275570E-09  0.921E-05    3.66     213.0  T
   5    -32.0749683 -0.756799E-10  0.395E-05    3.66     496.1  T
   6    -32.0749683 -0.151630E-10  0.161E-05    3.66    1220.6  T
   7    -32.0749683 -0.255795E-12  0.350E-06    3.66    5605.9  T
   8    -32.0749683 -0.426326E-13  0.141E-06    3.66   13910.1  T
     SCC iter.                  ...        0 min,  0.072 sec
     gradient                   ...        0 min,  0.002 sec
 * total energy  :   -31.5546748 Eh     change       -0.5390127E-06 Eh
   gradient norm :     0.0000941 Eh/α   predicted    -0.1980798E-06 ( -63.25%)
   displ. norm   :     0.0157479 α      lambda       -0.4427351E-06
   maximum displ.:     0.0117373 α      in ANC's #1, #5, #3, ...

........................................................................
.............................. CYCLE   34 ..............................
........................................................................

 iter      E             dE          RMSdq      gap      omega  full diag
   1    -32.0749691 -0.320750E+02  0.493E-03    3.66       0.0  T
   2    -32.0749691 -0.177075E-08  0.287E-03    3.66       6.8  T
   3    -32.0749691  0.296069E-09  0.284E-04    3.66      69.0  T
   4    -32.0749691 -0.710465E-09  0.995E-05    3.66     197.1  T
   5    -32.0749691 -0.505267E-10  0.533E-05    3.66     368.0  T
   6    -32.0749691 -0.216573E-10  0.198E-05    3.66     990.2  T
   7    -32.0749691 -0.319744E-12  0.517E-06    3.66    3793.9  T
   8    -32.0749691 -0.390799E-12  0.178E-06    3.66   10991.3  T
     SCC iter.                  ...        0 min,  0.072 sec
     gradient                   ...        0 min,  0.002 sec
 * total energy  :   -31.5546754 Eh     change       -0.5791622E-06 Eh
   gradient norm :     0.0000867 Eh/α   predicted    -0.2218930E-06 ( -61.69%)
   displ. norm   :     0.0154186 α      lambda       -0.3848984E-06
   maximum displ.:     0.0118545 α      in ANC's #1, #5, #10, ...

........................................................................
.............................. CYCLE   35 ..............................
........................................................................

 iter      E             dE          RMSdq      gap      omega  full diag
   1    -32.0749591 -0.320750E+02  0.473E-03    3.66       0.0  T
   2    -32.0749591 -0.173817E-08  0.276E-03    3.66       7.1  T
   3    -32.0749591  0.965628E-10  0.229E-04    3.66      85.6  T
   4    -32.0749591 -0.241741E-09  0.128E-04    3.66     153.3  T
   5    -32.0749591 -0.281176E-09  0.327E-05    3.66     599.3  T
   6    -32.0749591 -0.180478E-11  0.145E-05    3.66    1351.2  T
   7    -32.0749591 -0.284217E-13  0.499E-06    3.66    3930.4  T
   8    -32.0749591 -0.540012E-12  0.119E-06    3.66   16482.7  T
     SCC iter.                  ...        0 min,  0.072 sec
     gradient                   ...        0 min,  0.002 sec
 * total energy  :   -31.5546759 Eh     change       -0.5020637E-06 Eh
   gradient norm :     0.0000597 Eh/α   predicted    -0.1949402E-06 ( -61.17%)
   displ. norm   :     0.0127433 α      lambda       -0.2847106E-06
   maximum displ.:     0.0103198 α      in ANC's #1, #6, #10, ...

........................................................................
.............................. CYCLE   36 ..............................
........................................................................

 iter      E             dE          RMSdq      gap      omega  full diag
   1    -32.0749531 -0.320750E+02  0.402E-03    3.66       0.0  T
   2    -32.0749531 -0.763848E-09  0.235E-03    3.66       8.3  T
   3    -32.0749531  0.648654E-10  0.175E-04    3.66     112.3  T
   4    -32.0749531 -0.313555E-09  0.691E-05    3.66     283.9  T
   5    -32.0749531 -0.245421E-10  0.347E-05    3.66     564.4  T
   6    -32.0749531 -0.704858E-11  0.107E-05    3.66    1832.6  T
   7    -32.0749531 -0.923706E-13  0.300E-06    3.66    6537.6  T
   8    -32.0749531 -0.241585E-12  0.995E-07    3.66   19701.2  T
     SCC iter.                  ...        0 min,  0.073 sec
     gradient                   ...        0 min,  0.002 sec
 * total energy  :   -31.5546763 Eh     change       -0.3981309E-06 Eh
   gradient norm :     0.0000464 Eh/α   predicted    -0.1448764E-06 ( -63.61%)
   displ. norm   :     0.0105378 α      lambda       -0.2331087E-06
   maximum displ.:     0.0088065 α      in ANC's #1, #4, #6, ...

........................................................................
.............................. CYCLE   37 ..............................
........................................................................

 iter      E             dE          RMSdq      gap      omega  full diag
   1    -32.0749574 -0.320750E+02  0.334E-03    3.66       0.0  T
   2    -32.0749574 -0.575447E-09  0.195E-03    3.66      10.1  T
   3    -32.0749574 -0.751044E-11  0.129E-04    3.66     152.4  T
   4    -32.0749574 -0.965343E-10  0.723E-05    3.66     271.4  T
   5    -32.0749574 -0.881641E-10  0.215E-05    3.66     910.9  T
   6    -32.0749574 -0.111555E-11  0.979E-06    3.66    2003.2  T
   7    -32.0749574 -0.248690E-12  0.179E-06    3.66   10932.0  T
     SCC iter.                  ...        0 min,  0.072 sec
     gradient                   ...        0 min,  0.002 sec
 * total energy  :   -31.5546766 Eh     change       -0.3390379E-06 Eh
   gradient norm :     0.0000484 Eh/α   predicted    -0.1194476E-06 ( -64.77%)
   displ. norm   :     0.0103126 α      lambda       -0.2318211E-06
   maximum displ.:     0.0087097 α      in ANC's #1, #4, #6, ...

........................................................................
.............................. CYCLE   38 ..............................
........................................................................

 iter      E             dE          RMSdq      gap      omega  full diag
   1    -32.0749539 -0.320750E+02  0.326E-03    3.66       0.0  T
   2    -32.0749539 -0.799155E-09  0.189E-03    3.66      10.4  T
   3    -32.0749539 -0.541363E-10  0.141E-04    3.66     138.9  T
   4    -32.0749539 -0.658957E-10  0.691E-05    3.66     283.7  T
   5    -32.0749539 -0.744294E-10  0.258E-05    3.66     760.5  T
   6    -32.0749539 -0.443379E-11  0.116E-05    3.66    1697.5  T
   7    -32.0749539 -0.248690E-12  0.232E-06    3.66    8445.1  T
   8    -32.0749539 -0.355271E-13  0.112E-06    3.66   17544.4  T
     SCC iter.                  ...        0 min,  0.072 sec
     gradient                   ...        0 min,  0.002 sec
 * total energy  :   -31.5546770 Eh     change       -0.3311647E-06 Eh
   gradient norm :     0.0000485 Eh/α   predicted    -0.1173779E-06 ( -64.56%)
   displ. norm   :     0.0102998 α      lambda       -0.2213777E-06
   maximum displ.:     0.0087725 α      in ANC's #1, #4, #5, ...

........................................................................
.............................. CYCLE   39 ..............................
........................................................................

 iter      E             dE          RMSdq      gap      omega  full diag
   1    -32.0749598 -0.320750E+02  0.342E-03    3.66       0.0  T
   2    -32.0749598 -0.693127E-09  0.199E-03    3.66       9.9  T
   3    -32.0749598 -0.605098E-10  0.131E-04    3.66     149.7  T
   4    -32.0749598 -0.671463E-10  0.642E-05    3.66     305.3  T
   5    -32.0749598 -0.591029E-10  0.282E-05    3.66     695.5  T
   6    -32.0749598 -0.753175E-11  0.124E-05    3.66    1586.2  T
   7    -32.0749598 -0.305533E-12  0.206E-06    3.66    9509.5  T
   8    -32.0749598  0.213163E-13  0.100E-06    3.66   19568.3  T
     SCC iter.                  ...        0 min,  0.072 sec
     gradient                   ...        0 min,  0.002 sec
 * total energy  :   -31.5546773 Eh     change       -0.3083624E-06 Eh
   gradient norm :     0.0000475 Eh/α   predicted    -0.1127256E-06 ( -63.44%)
   displ. norm   :     0.0094721 α      lambda       -0.1890505E-06
   maximum displ.:     0.0082510 α      in ANC's #1, #5, #4, ...

........................................................................
.............................. CYCLE   40 ..............................
........................................................................

 iter      E             dE          RMSdq      gap      omega  full diag
   1    -32.0749618 -0.320750E+02  0.331E-03    3.66       0.0  T
   2    -32.0749618 -0.957435E-09  0.191E-03    3.66      10.3  T
   3    -32.0749618 -0.568434E-10  0.152E-04    3.66     129.4  T
   4    -32.0749618 -0.338716E-10  0.763E-05    3.66     257.1  T
   5    -32.0749618 -0.119776E-09  0.231E-05    3.66     848.0  T
   6    -32.0749618 -0.154898E-11  0.103E-05    3.66    1907.3  T
   7    -32.0749618 -0.397904E-12  0.252E-06    3.66    7782.8  T
   8    -32.0749618 -0.142109E-13  0.115E-06    3.66   16981.9  T
     SCC iter.                  ...        0 min,  0.078 sec
     gradient                   ...        0 min,  0.002 sec
 * total energy  :   -31.5546776 Eh     change       -0.2649791E-06 Eh
   gradient norm :     0.0000405 Eh/α   predicted    -0.9664819E-07 ( -63.53%)
   displ. norm   :     0.0080297 α      lambda       -0.1504860E-06
   maximum displ.:     0.0072785 α      in ANC's #1, #5, #2, ...

........................................................................
.............................. CYCLE   41 ..............................
........................................................................

 iter      E             dE          RMSdq      gap      omega  full diag
   1    -32.0749644 -0.320750E+02  0.302E-03    3.66       0.0  T
   2    -32.0749644 -0.486679E-09  0.175E-03    3.66      11.2  T
   3    -32.0749644 -0.372182E-10  0.115E-04    3.66     171.2  T
   4    -32.0749644 -0.708482E-10  0.522E-05    3.66     376.0  T
   5    -32.0749644 -0.282654E-10  0.250E-05    3.66     785.3  T
   6    -32.0749644 -0.613198E-11  0.108E-05    3.66    1817.2  T
   7    -32.0749644 -0.149214E-12  0.177E-06    3.66   11075.6  T
   8    -32.0749644 -0.426326E-13  0.761E-07    3.66   25772.6  T
     SCC iter.                  ...        0 min,  0.079 sec
     gradient                   ...        0 min,  0.002 sec
 * total energy  :   -31.5546778 Eh     change       -0.2251879E-06 Eh
   gradient norm :     0.0000366 Eh/α   predicted    -0.7676067E-07 ( -65.91%)
   displ. norm   :     0.0063112 α      lambda       -0.1243027E-06
   maximum displ.:     0.0058182 α      in ANC's #1, #2, #5, ...

........................................................................
.............................. CYCLE   42 ..............................
........................................................................

 iter      E             dE          RMSdq      gap      omega  full diag
   1    -32.0749661 -0.320750E+02  0.247E-03    3.66       0.0  T
   2    -32.0749661 -0.359563E-09  0.143E-03    3.66      13.7  T
   3    -32.0749661  0.553513E-11  0.103E-04    3.66     189.9  T
   4    -32.0749661 -0.517559E-10  0.568E-05    3.66     345.2  T
   5    -32.0749661 -0.543352E-10  0.159E-05    3.66    1234.2  T
   6    -32.0749661 -0.646594E-12  0.749E-06    3.66    2618.2  T
   7    -32.0749661 -0.120792E-12  0.164E-06    3.66   11932.3  T
     SCC iter.                  ...        0 min,  0.074 sec
     gradient                   ...        0 min,  0.002 sec
 * total energy  :   -31.5546780 Eh     change       -0.1874253E-06 Eh
   gradient norm :     0.0000353 Eh/α   predicted    -0.6394667E-07 ( -65.88%)
   displ. norm   :     0.0063017 α      lambda       -0.1266085E-06
   maximum displ.:     0.0055411 α      in ANC's #1, #2, #4, ...
 * RMSD in coord.:     0.0658785 α      energy gain  -0.2506159E-04 Eh

generating ANC from model Hessian ...
Using Lindh-Hessian (1995)
 Shifting diagonal of input Hessian by   9.151442699511370E-003
 Lowest  eigenvalues of input Hessian
    0.000000    0.000000    0.000000    0.000000    0.000000    0.000000
    0.010000    0.010195    0.010770    0.010977    0.011259    0.012880
    0.015508    0.017340    0.017914    0.018872    0.020059    0.024168
 Highest eigenvalues
    1.363904    1.555399    1.572878    1.882149    1.988576    2.004459
 

........................................................................
.............................. CYCLE   43 ..............................
........................................................................

 iter      E             dE          RMSdq      gap      omega  full diag
   1    -32.0749674 -0.320750E+02  0.245E-03    3.66       0.0  T
   2    -32.0749674 -0.334005E-09  0.142E-03    3.66      13.8  T
   3    -32.0749674  0.214442E-10  0.104E-04    3.66     187.9  T
   4    -32.0749674 -0.745004E-10  0.552E-05    3.66     355.3  T
   5    -32.0749674 -0.447642E-10  0.169E-05    3.66    1159.6  T
   6    -32.0749674 -0.937916E-12  0.754E-06    3.66    2600.9  T
   7    -32.0749674 -0.142109E-13  0.195E-06    3.66   10035.7  T
     SCC iter.                  ...        0 min,  0.073 sec
     gradient                   ...        0 min,  0.002 sec
 * total energy  :   -31.5546782 Eh     change       -0.1883946E-06 Eh
   gradient norm :     0.0000344 Eh/α   predicted     0.0000000E+00 (-100.00%)
   displ. norm   :     0.0000516 α      lambda        0.0000000E+00
   maximum displ.:     0.0000448 α      in ANC's #1, #4, #70, ...

........................................................................
.............................. CYCLE   44 ..............................
........................................................................

 iter      E             dE          RMSdq      gap      omega  full diag
   1    -32.0749666 -0.320750E+02  0.354E-05    3.66       0.0  T
   2    -32.0749666 -0.194689E-11  0.203E-05    3.66     965.3  T
   3    -32.0749666  0.149214E-12  0.984E-06    3.66    1993.6  T
   4    -32.0749666 -0.639488E-12  0.275E-06    3.66    7135.7  T
     SCC iter.                  ...        0 min,  0.071 sec
     gradient                   ...        0 min,  0.002 sec
 * total energy  :   -31.5546782 Eh     change       -0.1663249E-08 Eh
   gradient norm :     0.0000325 Eh/α   predicted    -0.1088869E-08 ( -34.53%)
   displ. norm   :     0.0000516 α      lambda        0.0000000E+00
   maximum displ.:     0.0000448 α      in ANC's #1, #4, #70, ...

   *** GEOMETRY OPTIMIZATION CONVERGED AFTER 44 ITERATIONS ***

------------------------------------------------------------------------
 total energy gain   :        -0.0081599 Eh       -5.1204 kcal/mol
 total RMSD          :         0.5484511 a0        0.2902 Å
 total power (kW/mol):        -0.4869068 (step)   -6.3378 (real)
------------------------------------------------------------------------

 ANCopt (total)                0 d,  0 h,  0 min,  3.380 sec
 optimizer setup                ...        0 min,  0.000 sec (  0.002%)
 model hessian                  ...        0 min,  0.018 sec (  0.521%)
 ANC generation                 ...        0 min,  0.001 sec (  0.030%)
 coordinate transformation      ...        0 min,  0.000 sec (  0.013%)
 single point calculation       ...        0 min,  3.354 sec ( 99.216%)
 optimization log               ...        0 min,  0.003 sec (  0.084%)
 hessian update                 ...        0 min,  0.001 sec (  0.035%)
 rational function              ...        0 min,  0.002 sec (  0.067%)

================
 final structure:
================
26
 xtb: 6.7.0 (08769fc)
P            1.57281318389306       -0.18082049994252       -3.04196881792327
C            3.22930905901684        0.18550663092095       -3.83642929433411
H            3.91514533597148       -0.65410657110213       -3.69537117273833
H            3.05464404305218        0.31678167631878       -4.90775912569627
C            3.83320607969136        1.46312798374965       -3.26374373446570
H            3.99697386963660        1.37249025565267       -2.19216082276377
H            3.16265092674873        2.30343585878122       -3.43069978518247
H            4.78747009478647        1.68288687556564       -3.74049994192401
C            0.82872366997999       -1.24697256882703       -4.34452106331398
C            1.55591548260623       -2.13594722697399       -5.12803737071412
C           -0.54560423954159       -1.15181770020732       -4.53184518975391
C            0.91708640995864       -2.91275892036179       -6.07714645071972
C           -1.18525076260898       -1.93076924396793       -5.47922151539657
C           -0.45310379580994       -2.81331508175734       -6.25466836113359
H            2.62555304531972       -2.22443837257088       -5.00273173207240
H           -1.10961597390749       -0.45607258775152       -3.92596439677287
H            1.49096822116854       -3.60069802737156       -6.68197272803710
H           -2.25392963200948       -1.84786954917748       -5.61539489720813
H           -0.94741051886797       -3.42209738951917       -6.99768561444575
C            2.06245438310635       -1.57791632107115       -1.89890067824029
H            1.12643406380723       -2.02446139278522       -1.54999015547874
H            2.60785145700373       -2.33956121669093       -2.46428752723690
C            2.88057486411956       -1.09858100744015       -0.70852481509398
H            2.35553239413943       -0.30461650981394       -0.18087953047918
H            3.84701536688145       -0.71646253273574       -1.03019208047798
H            3.05430197185793       -1.91802656092157       -0.01255719839708
 
 Bond Distances (Angstroems)
 ---------------------------
P1-C2=1.8733         P1-C9=1.8404         P1-C20=1.8704        C2-P1=1.8733         C2-H3=1.0933         C2-H4=1.0934         
C2-C5=1.5248         H3-C2=1.0933         H4-C2=1.0934         C5-C2=1.5248         C5-H6=1.0878         C5-H7=1.0880         
C5-H8=1.0891         H6-C5=1.0878         H7-C5=1.0880         H8-C5=1.0891         C9-P1=1.8404         C9-C10=1.3903        
C9-C11=1.3903        C10-C9=1.3903        C10-C12=1.3829       C10-H15=1.0806       C11-C9=1.3903        C11-C13=1.3833       
C11-H16=1.0813       C12-C10=1.3829       C12-C14=1.3852       C12-H17=1.0809       C13-C11=1.3833       C13-C14=1.3843       
C13-H18=1.0805       C14-C12=1.3852       C14-C13=1.3843       C14-H19=1.0803       H15-C10=1.0806       H16-C11=1.0813       
H17-C12=1.0809       H18-C13=1.0805       H19-C14=1.0803       C20-P1=1.8704        C20-H21=1.0942       C20-H22=1.0942       
C20-C23=1.5219       H21-C20=1.0942       H22-C20=1.0942       C23-C20=1.5219       C23-H24=1.0883       C23-H25=1.0879       
C23-H26=1.0891       H24-C23=1.0883       H25-C23=1.0879       H26-C23=1.0891       
 C  H  Rav=1.0873 sigma=0.0051  Rmin=1.0803  Rmax=1.0942    15
 C  C  Rav=1.4204 sigma=0.0595  Rmin=1.3829  Rmax=1.5248     8
 P  C  Rav=1.8614 sigma=0.0149  Rmin=1.8404  Rmax=1.8733     3
 
 selected bond angles (degree)
 --------------------
C9-P1-C2= 99.83                C20-P1-C2=100.01               C20-P1-C9= 96.07               H3-C2-P1=110.48                
H4-C2-P1=107.32                H4-C2-H3=108.59                C5-C2-P1=110.78                C5-C2-H3=110.28                
C5-C2-H4=109.31                H6-C5-C2=111.09                H7-C5-C2=110.21                H7-C5-H6=107.96                
H8-C5-C2=110.59                H8-C5-H6=108.43                H8-C5-H7=108.48                C10-C9-P1=123.90               
C11-C9-P1=117.09               C11-C9-C10=119.00              C12-C10-C9=120.29              H15-C10-C9=120.32              
H15-C10-C12=119.40             
 
 selected dihedral angles (degree)
 ---------------------------------
H3-C2-P1-C9=279.96            H3-C2-P1-C20= 17.98           H4-C2-P1-C9= 38.19            H4-C2-P1-C20=136.20           
C5-C2-P1-C9=157.45            C5-C2-P1-C20=255.47           H6-C5-C2-P1= 60.57            H6-C5-C2-H3=297.95            
H6-C5-C2-H4=178.64            H7-C5-C2-P1=300.97            H7-C5-C2-H3=178.34            H7-C5-C2-H4= 59.03            
H8-C5-C2-P1=181.02            H8-C5-C2-H3= 58.40            H8-C5-C2-H4=299.09            C10-C9-P1-C2= 34.79           
C10-C9-P1-C20=293.50          C11-C9-P1-C2=214.16           C11-C9-P1-C20=112.87          C12-C10-C9-P1=179.30          
C12-C10-C9-C11=359.93         H15-C10-C9-P1=359.14          H15-C10-C9-C11=179.78         
           -------------------------------------------------
          |                Final Singlepoint                |
           -------------------------------------------------

          ...................................................
          :                      SETUP                      :
          :.................................................:
          :  # basis functions                  65          :
          :  # atomic orbitals                  64          :
          :  # shells                           38          :
          :  # electrons                        60          :
          :  max. iterations                  5000          :
          :  Hamiltonian                  GFN2-xTB          :
          :  restarted?                      false          :
          :  GBSA solvation                  false          :
          :  PC potential                    false          :
          :  electronic temp.          300.0000000     K    :
          :  accuracy                    0.0100000          :
          :  -> integral cutoff          0.4500000E+02      :
          :  -> integral neglect         0.1000000E-09      :
          :  -> SCF convergence          0.1000000E-07 Eh   :
          :  -> wf. convergence          0.1000000E-05 e    :
          :  Broyden damping             0.4000000          :
          :  net charge                          0          :
          :  unpaired electrons                  0          :
          ...................................................

 iter      E             dE          RMSdq      gap      omega  full diag
   1    -32.0749666 -0.320750E+02  0.104E-06    3.66       0.0  T
   2    -32.0749666  0.355271E-13  0.692E-07    3.66   28321.9  T
   3    -32.0749666 -0.355271E-13  0.293E-07    3.66   66990.6  T

   *** convergence criteria satisfied after 3 iterations ***

         #    Occupation            Energy/Eh            Energy/eV
[...]
         :: total charge              -0.000000000000 e     ::
         :::::::::::::::::::::::::::::::::::::::::::::::::::::

           ------------------------------------------------- 
          |                Numerical Hessian                |
           ------------------------------------------------- 
step length          :   0.00500
SCC accuracy         :   0.30000
Hessian scale factor :   1.00000
frozen atoms in %    :   0.00000    0
RMS gradient         :   0.00003
estimated CPU  time      1.13 min
estimated wall time      0.14 min

writing file <hessian>.

 projected vibrational frequencies (cm⁻¹)
eigval :       -0.00    -0.00    -0.00     0.00     0.00     0.00
eigval :       31.42    72.75    79.51    98.28   120.36   177.27
eigval :      204.48   217.67   244.58   265.38   271.83   326.06
eigval :      363.07   441.84   455.66   585.97   655.87   660.32
eigval :      686.24   702.64   734.08   741.07   789.07   875.14
eigval :      899.30   927.05   932.54   969.47   971.37  1010.13
eigval :     1014.65  1018.11  1071.13  1073.66  1083.05  1118.30
eigval :     1120.54  1181.60  1198.52  1222.55  1231.49  1252.16
eigval :     1255.31  1278.11  1315.32  1408.05  1411.11  1423.67
eigval :     1444.40  1451.24  1457.68  1494.77  1497.77  1502.85
eigval :     1507.81  1579.69  1589.41  2925.78  2935.94  2945.76
eigval :     2949.85  3011.86  3012.75  3025.88  3028.44  3033.03
eigval :     3036.44  3063.89  3065.71  3074.01  3078.96  3088.14
           -------------------------------------------------
          |                Property Printout                |
           -------------------------------------------------

    * Orbital Energies and Occupations

         #    Occupation            Energy/Eh            Energy/eV
      -------------------------------------------------------------
         1        2.0000           -0.6576811             -17.8964
       ...           ...                  ...                  ...
        18        2.0000           -0.4779128             -13.0047
        19        2.0000           -0.4774006             -12.9907
        20        2.0000           -0.4630612             -12.6005
        21        2.0000           -0.4599701             -12.5164
        22        2.0000           -0.4522974             -12.3076
        23        2.0000           -0.4460011             -12.1363
        24        2.0000           -0.4392721             -11.9532
        25        2.0000           -0.4231119             -11.5135
        26        2.0000           -0.4165991             -11.3362
        27        2.0000           -0.4045291             -11.0078
        28        2.0000           -0.4039678             -10.9925
        29        2.0000           -0.3966980             -10.7947
        30        2.0000           -0.3669444              -9.9851 (HOMO)
        31                         -0.2325208              -6.3272 (LUMO)
        32                         -0.2227909              -6.0624
        33                         -0.1602094              -4.3595
        34                         -0.1501602              -4.0861
        35                         -0.0927910              -2.5250
        36                         -0.0067933              -0.1849
        37                          0.0722920               1.9672
        38                          0.0833897               2.2691
        39                          0.1006653               2.7392
        40                          0.1343050               3.6546
        41                          0.1402061               3.8152
       ...                                ...                  ...
        64                          0.7802332              21.2312
      -------------------------------------------------------------
                  HL-Gap            0.1344237 Eh            3.6579 eV
             Fermi-level           -0.2997326 Eh           -8.1561 eV

     #   Z          covCN         q      C6AA      α(0)
     1  15 P        3.036    -0.110   165.203    23.090
     2   6 C        3.747    -0.047    21.486     6.612
     3   1 H        0.925     0.041     2.433     2.439
     4   1 H        0.925     0.040     2.448     2.447
     5   6 C        3.818    -0.098    22.358     6.730
     6   1 H        0.925     0.038     2.471     2.458
     7   1 H        0.925     0.041     2.436     2.441
     8   1 H        0.925     0.031     2.579     2.511
     9   6 C        2.916     0.004    27.935     8.667
    10   6 C        2.963    -0.031    28.760     8.796
    11   6 C        3.013    -0.031    28.748     8.795
    12   6 C        2.919    -0.031    28.769     8.796
    13   6 C        2.918    -0.029    28.736     8.791
    14   6 C        2.920    -0.029    28.733     8.790
    15   1 H        0.926     0.033     2.549     2.496
    16   1 H        0.925     0.039     2.464     2.454
    17   1 H        0.926     0.029     2.604     2.524
    18   1 H        0.926     0.031     2.576     2.510
    19   1 H        0.926     0.030     2.591     2.517
    20   6 C        3.747    -0.045    21.453     6.606
    21   1 H        0.926     0.038     2.474     2.460
    22   1 H        0.925     0.042     2.422     2.434
    23   6 C        3.805    -0.096    22.328     6.727
    24   1 H        0.925     0.041     2.435     2.440
    25   1 H        0.925     0.038     2.476     2.461
    26   1 H        0.925     0.032     2.554     2.499

 Mol. C6AA /au·bohr⁶  :       7598.840130
 Mol. C8AA /au·bohr⁸  :     202565.716474
 Mol. α(0) /au        :        139.490051


Wiberg/Mayer (AO) data.
largest (>0.10) Wiberg bond orders for each atom

 ---------------------------------------------------------------------------
     #   Z sym  total        # sym  WBO       # sym  WBO       # sym  WBO
 ---------------------------------------------------------------------------
     1  15 P    3.335 --     2 C    1.025    20 C    1.020     9 C    1.007
     2   6 C    3.995 --     1 P    1.025     5 C    1.016     4 H    0.959
                             3 H    0.954
     3   1 H    0.998 --     2 C    0.954
     4   1 H    0.998 --     2 C    0.959
     5   6 C    3.996 --     2 C    1.016     7 H    0.985     8 H    0.985
                             6 H    0.983
     6   1 H    0.999 --     5 C    0.983
     7   1 H    0.998 --     5 C    0.985
     8   1 H    0.999 --     5 C    0.985
     9   6 C    3.983 --    11 C    1.409    10 C    1.399     1 P    1.007
                            14 C    0.108
    10   6 C    3.992 --    12 C    1.449     9 C    1.399    15 H    0.963
                            13 C    0.110
    11   6 C    3.991 --    13 C    1.443     9 C    1.409    16 H    0.965
                            12 C    0.109
    12   6 C    3.993 --    10 C    1.449    14 C    1.433    17 H    0.970
                            11 C    0.109
    13   6 C    3.992 --    11 C    1.443    14 C    1.440    18 H    0.970
                            10 C    0.110
    14   6 C    3.990 --    13 C    1.440    12 C    1.433    19 H    0.971
                             9 C    0.108
    15   1 H    0.999 --    10 C    0.963
    16   1 H    0.998 --    11 C    0.965
    17   1 H    0.999 --    12 C    0.970
    18   1 H    0.999 --    13 C    0.970
    19   1 H    0.998 --    14 C    0.971
    20   6 C    3.995 --     1 P    1.020    23 C    1.017    21 H    0.959
                            22 H    0.952
    21   1 H    0.998 --    20 C    0.959
    22   1 H    0.998 --    20 C    0.952
    23   6 C    3.996 --    20 C    1.017    24 H    0.985    26 H    0.984
                            25 H    0.983
    24   1 H    0.998 --    23 C    0.985
    25   1 H    0.999 --    23 C    0.983
    26   1 H    0.998 --    23 C    0.984
 ---------------------------------------------------------------------------

Topologies differ in total number of bonds
Writing topology from bond orders to xtbtopo.mol

molecular dipole:
                 x           y           z       tot (Debye)
 q only:        0.219      -0.144       0.027
   full:        0.424      -0.462      -0.128       1.626
molecular quadrupole (traceless):
                xx          xy          yy          xz          yz          zz
 q only:        2.341      -0.647      -0.998      -1.225       1.809      -1.344
  q+dip:        4.570      -3.408      -3.455      -3.798       7.039      -1.116
   full:        3.223      -2.115      -2.989      -3.561       5.069      -0.235

           -------------------------------------------------
          |                Geometry Summary                 |
           -------------------------------------------------

      molecular mass/u    :      166.2002322
   center of mass at/Å    :        1.4338056      -1.0729286      -3.8795407
  moments of inertia/u·Å² :        0.2863528E+03   0.9268419E+03   0.9943082E+03
rotational constants/cm⁻¹ :        0.5887015E-01   0.1818825E-01   0.1695413E-01

 * 23 selected distances

     #   Z          #   Z                                           value/Å
     2   6 C        3   1 H                                       1.0932609
     2   6 C        4   1 H                                       1.0933841
     2   6 C        5   6 C                                       1.5247876 (max)
     5   6 C        6   1 H                                       1.0878075
     5   6 C        7   1 H                                       1.0879504
     5   6 C        8   1 H                                       1.0891329
     9   6 C       10   6 C                                       1.3903172
     9   6 C       11   6 C                                       1.3902958
    10   6 C       12   6 C                                       1.3828765
    11   6 C       13   6 C                                       1.3832698
    12   6 C       14   6 C                                       1.3852165
    13   6 C       14   6 C                                       1.3842848
    10   6 C       15   1 H                                       1.0805817
    11   6 C       16   1 H                                       1.0813243
    12   6 C       17   1 H                                       1.0809327
    13   6 C       18   1 H                                       1.0805046
    14   6 C       19   1 H                                       1.0802916 (min)
    20   6 C       21   1 H                                       1.0942008
    20   6 C       22   1 H                                       1.0941771
    20   6 C       23   6 C                                       1.5218668
    23   6 C       24   1 H                                       1.0883285
    23   6 C       25   1 H                                       1.0878841
    23   6 C       26   1 H                                       1.0890561

 * 2 distinct bonds (by element types)

   Z      Z             #   av. dist./Å        max./Å        min./Å
   1 H    6 C          15     1.0872545     1.0942008     1.0802916
   6 C    6 C           8     1.4203644     1.5247876     1.3828765

           -------------------------------------------------
          |               Frequency Printout                |
           -------------------------------------------------
 projected vibrational frequencies (cm⁻¹)
eigval :       -0.00    -0.00    -0.00     0.00     0.00     0.00
eigval :       31.42    72.75    79.51    98.28   120.36   177.27
eigval :      204.48   217.67   244.58   265.38   271.83   326.06
eigval :      363.07   441.84   455.66   585.97   655.87   660.32
eigval :      686.24   702.64   734.08   741.07   789.07   875.14
eigval :      899.30   927.05   932.54   969.47   971.37  1010.13
eigval :     1014.65  1018.11  1071.13  1073.66  1083.05  1118.30
eigval :     1120.54  1181.60  1198.52  1222.55  1231.49  1252.16
eigval :     1255.31  1278.11  1315.32  1408.05  1411.11  1423.67
eigval :     1444.40  1451.24  1457.68  1494.77  1497.77  1502.85
eigval :     1507.81  1579.69  1589.41  2925.78  2935.94  2945.76
eigval :     2949.85  3011.86  3012.75  3025.88  3028.44  3033.03
eigval :     3036.44  3063.89  3065.71  3074.01  3078.96  3088.14
 reduced masses (amu)
   1: 12.37   2: 15.00   3: 13.68   4: 10.90   5: 13.48   6: 10.78   7: 10.91   8: 10.32
   9:  8.88  10:  7.15  11: 10.50  12:  3.68  13:  8.72  14:  6.07  15: 10.31  16: 10.12
  17: 10.09  18: 12.97  19:  8.84  20: 17.92  21: 13.85  22: 11.17  23: 13.23  24: 11.27
  25: 13.67  26: 15.58  27:  3.18  28:  4.55  29:  4.57  30:  3.29  31:  3.55  32:  4.19
  33:  2.99  34:  9.12  35:  4.34  36:  3.51  37:  4.04  38:  3.43  39:  9.53  40:  9.61
  41:  7.93  42:  5.50  43:  7.55  44:  1.34  45:  1.93  46:  3.54  47:  3.36  48:  4.20
  49:  4.23  50:  3.37  51: 11.96  52:  2.97  53:  2.90  54:  8.62  55:  2.44  56:  1.98
  57:  7.96  58:  1.53  59:  1.55  60:  1.55  61:  1.55  62: 11.46  63: 11.45  64:  1.89
  65:  1.79  66:  1.60  67:  1.66  68:  1.86  69:  1.82  70:  1.92  71:  1.92  72:  1.39
  73:  1.39  74:  1.78  75:  1.76  76:  1.82  77:  1.87  78:  1.92
 IR intensities (km·mol⁻¹)
   1:  0.04   2:  0.04   3:  0.08   4:  0.09   5:  0.13   6:  0.17   7:  0.23   8:  0.05
   9:  0.12  10:  0.24  11:  0.23  12:  0.11  13:  0.11  14:  0.01  15:  0.10  16:  0.85
  17:  0.04  18:  0.26  19:  0.05  20:  7.64  21:  8.06  22:  0.06  23:  5.86  24:  3.26
  25:  4.98  26: 52.22  27: 13.06  28:  3.92  29: 21.22  30:  0.09  31:  0.02  32:  0.06
  33:  0.00  34:  1.26  35:  2.28  36:  0.95  37:  0.79  38:  6.77  39:  2.18  40:  4.02
  41:  0.00  42:  1.07  43:  4.75  44:  0.03  45:  0.59  46:  1.03  47:  2.69  48:  8.15
  49:  5.81  50:  1.04  51:  0.79  52:  0.90  53:  3.02  54:  1.35  55:  0.71  56:  0.51
  57:  0.32  58:  0.71  59:  4.41  60:  1.54  61:  1.94  62:  0.29  63:  0.99  64: 15.15
  65: 25.46  66: 17.20  67: 17.15  68: 70.87  69: 37.17  70: 29.27  71: 28.96  72: 19.22
  73: 22.79  74: 12.52  75:  4.10  76: 13.37  77: 84.95  78: 58.89
 Raman intensities (Ä⁴*amu⁻¹)
   1:  0.00   2:  0.00   3:  0.00   4:  0.00   5:  0.00   6:  0.00   7:  0.00   8:  0.00
   9:  0.00  10:  0.00  11:  0.00  12:  0.00  13:  0.00  14:  0.00  15:  0.00  16:  0.00
  17:  0.00  18:  0.00  19:  0.00  20:  0.00  21:  0.00  22:  0.00  23:  0.00  24:  0.00
  25:  0.00  26:  0.00  27:  0.00  28:  0.00  29:  0.00  30:  0.00  31:  0.00  32:  0.00
  33:  0.00  34:  0.00  35:  0.00  36:  0.00  37:  0.00  38:  0.00  39:  0.00  40:  0.00
  41:  0.00  42:  0.00  43:  0.00  44:  0.00  45:  0.00  46:  0.00  47:  0.00  48:  0.00
  49:  0.00  50:  0.00  51:  0.00  52:  0.00  53:  0.00  54:  0.00  55:  0.00  56:  0.00
  57:  0.00  58:  0.00  59:  0.00  60:  0.00  61:  0.00  62:  0.00  63:  0.00  64:  0.00
  65:  0.00  66:  0.00  67:  0.00  68:  0.00  69:  0.00  70:  0.00  71:  0.00  72:  0.00
  73:  0.00  74:  0.00  75:  0.00  76:  0.00  77:  0.00  78:  0.00
 output can be read by thermo (or use thermo option).
 writing <g98.out> molden fake output.
 recommended (thermochemical) frequency scaling factor: 1.0
           -------------------------------------------------
          |             Thermodynamic Functions             |
           -------------------------------------------------

Refinement of some symmetry elements was terminated before convergence was reached.
Some symmetry elements may remain unidentified.
Molecule has no symmetry elements
It seems to be the C1 point group
c1  symmetry found (for desy threshold:  0.10E+00) used in thermo

          ...................................................
          :                      SETUP                      :
          :.................................................:
          :  # frequencies                          72      :
          :  # imaginary freq.                       0      :
          :  linear?                             false      :
          :  only rotor calc.                    false      :
          :  symmetry                               c1      :
          :  rotational number                       1      :
          :  scaling factor                  1.0000000      :
          :  rotor cutoff                   50.0000000 cm⁻¹ :
          :  imag. cutoff                  -20.0000000 cm⁻¹ :
          :.................................................:

    mode    ω/cm⁻¹     T·S(HO)/kcal·mol⁻¹    T·S(FR)/kcal·mol⁻¹   T·S(vib)
   ------------------------------------------------------------------------
       1     31.42    -1.71074 ( 13.49%)    -1.19399 ( 86.51%)    -1.26368
       2     72.75    -1.21568 ( 81.76%)    -0.94535 ( 18.24%)    -1.16637
       3     79.51    -1.16369 ( 86.47%)    -0.91906 ( 13.53%)    -1.13060
       4     98.28    -1.03997 ( 93.72%)    -0.85627 (  6.28%)    -1.02844
       5    120.36    -0.92265 ( 97.11%)    -0.79626 (  2.89%)    -0.91900
       6    177.27    -0.70272 ( 99.37%)    -0.68157 (  0.63%)    -0.70258
       7    204.48    -0.62384 ( 99.64%)    -0.63927 (  0.36%)    -0.62390
       8    217.67    -0.58986 ( 99.72%)    -0.62076 (  0.28%)    -0.58995
       9    244.58    -0.52753 ( 99.83%)    -0.58624 (  0.17%)    -0.52763
      10    265.38    -0.48482 ( 99.87%)    -0.56206 (  0.13%)    -0.48492
      11    271.83    -0.47242 ( 99.89%)    -0.55494 (  0.11%)    -0.47252
   ------------------------------------------------------------------------

   temp. (K)  partition function   enthalpy   heat capacity  entropy
                                   cal/mol     cal/K/mol   cal/K/mol   J/K/mol
 298.15  VIB  0.161E+05             6200.557     39.653     38.217
         ROT  0.124E+07              888.752      2.981     30.865
         INT  0.199E+11             7089.309     42.634     69.082
         TR   0.207E+28             1481.254      4.968     41.214
         TOT                        8570.5628    47.6020   110.2959   461.4779

       T/K    H(0)-H(T)+PV         H(T)/Eh          T*S/Eh         G(T)/Eh
   ------------------------------------------------------------------------
    298.15    0.136581E-01    0.232339E+00    0.524051E-01    0.179934E+00
   ------------------------------------------------------------------------

         :::::::::::::::::::::::::::::::::::::::::::::::::::::
         ::                  THERMODYNAMIC                  ::
         :::::::::::::::::::::::::::::::::::::::::::::::::::::
         :: total free energy         -31.374744280355 Eh   ::
         ::.................................................::
         :: total energy              -31.554678155169 Eh   ::
         :: zero point energy           0.218680934255 Eh   ::
         :: G(RRHO) w/o ZPVE           -0.038747059441 Eh   ::
         :: G(RRHO) contrib.            0.179933874814 Eh   ::
         :::::::::::::::::::::::::::::::::::::::::::::::::::::

optimized geometry written to: xtbopt.xyz


           -------------------------------------------------
          | TOTAL ENERGY              -31.554678155169 Eh   |
          | TOTAL ENTHALPY            -31.322339159676 Eh   |
          | TOTAL FREE ENERGY         -31.374744280355 Eh   |
          | GRADIENT NORM               0.000032528395 Eh/α |
          | HOMO-LUMO GAP               3.657854234682 eV   |
           -------------------------------------------------

------------------------------------------------------------------------
 * finished run on 2025/07/14 at 11:26:46.170     
------------------------------------------------------------------------
 total:
 * wall-time:     0 d,  0 h,  0 min,  6.923 sec
 *  cpu-time:     0 d,  0 h,  1 min,  9.078 sec
 * ratio c/w:     9.978 speedup
 SCF:
 * wall-time:     0 d,  0 h,  0 min,  0.087 sec
 *  cpu-time:     0 d,  0 h,  0 min,  1.037 sec
 * ratio c/w:    11.906 speedup
 ANC optimizer:
 * wall-time:     0 d,  0 h,  0 min,  3.457 sec
 *  cpu-time:     0 d,  0 h,  0 min, 41.172 sec
 * ratio c/w:    11.911 speedup
 analytical hessian:
 * wall-time:     0 d,  0 h,  0 min,  3.369 sec
 *  cpu-time:     0 d,  0 h,  0 min, 26.767 sec
 * ratio c/w:     7.946 speedup

