      -----------------------------------------------------------      
     |                   =====================                   |     
     |                           x T B                           |     
     |                   =====================                   |     
     |                         S. Grimme                         |     
     |          Mulliken Center for Theoretical Chemistry        |     
     |                    University of Bonn                     |     
      -----------------------------------------------------------      

   * xtb version 6.7.0 (08769fc) compiled by 'albert@albert-system' on 2024-03-04

   xtb is free software: you can redistribute it and/or modify it under
   the terms of the GNU Lesser General Public License as published by
   the Free Software Foundation, either version 3 of the License, or
   (at your option) any later version.
   
   xtb is distributed in the hope that it will be useful,
   but WITHOUT ANY WARRANTY; without even the implied warranty of
   MERCHANTABILITY or FITNESS FOR A PARTICULAR PURPOSE.  See the
   GNU Lesser General Public License for more details.
   
   Cite this work as:
   * C. Bannwarth, E. Caldeweyher, S. Ehlert, A. Hansen, P. Pracht,
     J. Seibert, S. Spicher, S. Grimme, WIREs Comput. Mol. Sci., 2020, 11,
     e01493. DOI: 10.1002/wcms.1493
   
   for GFN2-xTB:
   * C. Bannwarth, S. Ehlert and S. Grimme., J. Chem. Theory Comput., 2019,
     15, 1652-1671. DOI: 10.1021/acs.jctc.8b01176
   for GFN1-xTB:
   * S. Grimme, C. Bannwarth, P. Shushkov, J. Chem. Theory Comput., 2017,
     13, 1989-2009. DOI: 10.1021/acs.jctc.7b00118
   for GFN0-xTB:
   * P. Pracht, E. Caldeweyher, S. Ehlert, S. Grimme, ChemRxiv, 2019, preprint.
     DOI: 10.26434/chemrxiv.8326202.v1
   for GFN-FF:
   * S. Spicher and S. Grimme, Angew. Chem. Int. Ed., 2020, 59, 15665-15673.
     DOI: 10.1002/anie.202004239
   
   for ALPB and GBSA implicit solvation:
   * S. Ehlert, M. Stahn, S. Spicher, S. Grimme, J. Chem. Theory Comput.,
     2021, 17, 4250-4261. DOI: 10.1021/acs.jctc.1c00471
   
   for ddCOSMO and CPCM-X implicit solvation:
   * M. Stahn, S. Ehlert, S. Grimme, J. Phys. Chem. A,
     2023, XX, XXXX-XXXX. DOI: 10.1021/acs.jpca.3c04382
   
   for DFT-D4:
   * E. Caldeweyher, C. Bannwarth and S. Grimme, J. Chem. Phys., 2017,
     147, 034112. DOI: 10.1063/1.4993215
   * E. Caldeweyher, S. Ehlert, A. Hansen, H. Neugebauer, S. Spicher,
     C. Bannwarth and S. Grimme, J. Chem. Phys., 2019, 150, 154122.
     DOI: 10.1063/1.5090222
   * E. Caldeweyher, J.-M. Mewes, S. Ehlert and S. Grimme, Phys. Chem. Chem. Phys.
     2020, 22, 8499-8512. DOI: 10.1039/D0CP00502A
   
   for sTDA-xTB:
   * S. Grimme and C. Bannwarth, J. Chem. Phys., 2016, 145, 054103.
     DOI: 10.1063/1.4959605
   
   in the mass-spec context:
   * V. Asgeirsson, C. Bauer and S. Grimme, Chem. Sci., 2017, 8, 4879.
     DOI: 10.1039/c7sc00601b
   * J. Koopman and S. Grimme, ACS Omega 2019, 4, 12, 15120-15133.
     DOI: 10.1021/acsomega.9b02011
   
   for metadynamics refer to:
   * S. Grimme, J. Chem. Theory Comput., 2019, 155, 2847-2862
     DOI: 10.1021/acs.jctc.9b00143
   
   for SPH calculations refer to:
   * S. Spicher and S. Grimme, J. Chem. Theory Comput., 2021, 17, 1701-1714
     DOI: 10.1021/acs.jctc.0c01306
   
   for ONIOM refer to:
   * C. Plett, A. Katbashev, S. Ehlert, S. Grimme, M. Bursch,
     Phys. Chem. Chem. Phys., 2023, 25, 17860-17868. DOI: 10.1039/D3CP02178E
   
   for DIPRO refer to:
   * J. Kohn, N. Gildemeister, S. Grimme, D. Fazzi, A. Hansen,
     J. Chem. Phys., 2023, just accepted.
   
   for PTB refer to:
   * S. Grimme, M. Mueller, A. Hansen, J. Chem. Phys., 2023, 158, 124111.
     DOI: 10.1063/5.0137838
   
   with help from (in alphabetical order)
   P. Atkinson, C. Bannwarth, F. Bohle, G. Brandenburg, E. Caldeweyher
   M. Checinski, S. Dohm, S. Ehlert, S. Ehrlich, I. Gerasimov, C. Hölzer
   A. Katbashev, J. Kohn, J. Koopman, C. Lavigne, S. Lehtola, F. März, M. Müller,
   F. Musil, H. Neugebauer, J. Pisarek, C. Plett, P. Pracht, F. Pultar,
   J. Seibert, P. Shushkov, S. Spicher, M. Stahn, M. Steiner, T. Strunk,
   J. Stückrath, T. Rose, and J. Unsleber
   
 * started run on 2025/07/14 at 11:37:52.325     
   ID    Z sym.   atoms
    1   15 P      1
    2    6 C      2, 5, 9-14, 20, 23
    3    1 H      3, 4, 6-8, 15-19, 21, 22, 24-26

           -------------------------------------------------
          |                Calculation Setup                |
           -------------------------------------------------

          program call               : /home/minenky/programs/xtb/xtb-dist/bin/xtb m1_00_PEt2Ph-PBE0-D3-TZ-uniMM_69.xyz --charge 0 --T --ohess extreme --cycles 5000 --acc 0.01 --iterations 5000
          coordinate file            : m1_00_PEt2Ph-PBE0-D3-TZ-uniMM_69.xyz
          omp threads                :                    12

########################################################################
[WARNING] Please study the warnings concerning your input carefully
-1- prog_main_parseArguments: Unknown option '--T' provided
########################################################################

           -------------------------------------------------
          |                 G F N 2 - x T B                 |
           -------------------------------------------------

        Reference                      10.1021/acs.jctc.8b01176
      * Hamiltonian:
        H0-scaling (s, p, d)           1.850000    2.230000    2.230000
        zeta-weighting                 0.500000
      * Dispersion:
        s8                             2.700000
        a1                             0.520000
        a2                             5.000000
        s9                             5.000000
      * Repulsion:
        kExp                           1.500000    1.000000
        rExp                           1.000000
      * Coulomb:
        alpha                          2.000000
        third order                    shell-resolved
        anisotropic                    true
        a3                             3.000000
        a5                             4.000000
        cn-shift                       1.200000
        cn-exp                         4.000000
        max-rad                        5.000000


          ...................................................
          :                      SETUP                      :
          :.................................................:
          :  # basis functions                  65          :
          :  # atomic orbitals                  64          :
          :  # shells                           38          :
          :  # electrons                        60          :
          :  max. iterations                  5000          :
          :  Hamiltonian                  GFN2-xTB          :
          :  restarted?                      false          :
          :  GBSA solvation                  false          :
          :  PC potential                    false          :
          :  electronic temp.          300.0000000     K    :
          :  accuracy                    0.0100000          :
          :  -> integral cutoff          0.4500000E+02      :
          :  -> integral neglect         0.1000000E-09      :
          :  -> SCF convergence          0.1000000E-07 Eh   :
          :  -> wf. convergence          0.1000000E-05 e    :
          :  Broyden damping             0.4000000          :
          :  net charge                          0          :
          :  unpaired electrons                  0          :
          ...................................................

 iter      E             dE          RMSdq      gap      omega  full diag
   1    -32.0041976 -0.320042E+02  0.366E+00    4.10       0.0  T
   2    -32.0470856 -0.428880E-01  0.225E+00    3.60       1.0  T
   3    -32.0467762  0.309427E-03  0.865E-01    3.33       1.0  T
   4    -32.0477716 -0.995382E-03  0.299E-01    3.35       1.0  T
   5    -32.0492447 -0.147311E-02  0.115E-01    3.39       1.0  T
   6    -32.0494355 -0.190852E-03  0.405E-02    3.38       1.0  T
   7    -32.0494472 -0.116632E-04  0.165E-02    3.39       1.2  T
   8    -32.0494475 -0.283895E-06  0.754E-03    3.39       2.6  T
   9    -32.0494481 -0.674564E-06  0.154E-03    3.39      12.7  T
  10    -32.0494482 -0.316986E-07  0.702E-04    3.39      27.9  T
  11    -32.0494482 -0.829822E-09  0.321E-04    3.39      61.2  T
  12    -32.0494482 -0.824713E-09  0.552E-05    3.39     355.2  T
  13    -32.0494482 -0.456168E-11  0.186E-05    3.39    1057.2  T
  14    -32.0494482 -0.937916E-12  0.106E-05    3.39    1854.7  T
  15    -32.0494482 -0.114397E-11  0.304E-06    3.39    6449.4  T
  16    -32.0494482 -0.781597E-13  0.144E-06    3.39   13572.3  T

   *** convergence criteria satisfied after 16 iterations ***

         #    Occupation            Energy/Eh            Energy/eV
      -------------------------------------------------------------
         1        2.0000           -0.6596012             -17.9487
       ...           ...                  ...                  ...
        24        2.0000           -0.4359886             -11.8639
        25        2.0000           -0.4239029             -11.5350
        26        2.0000           -0.4175314             -11.3616
        27        2.0000           -0.4054379             -11.0325
        28        2.0000           -0.3985349             -10.8447
        29        2.0000           -0.3969596             -10.8018
        30        2.0000           -0.3580854              -9.7440 (HOMO)
        31                         -0.2335313              -6.3547 (LUMO)
        32                         -0.2225108              -6.0548
        33                         -0.1474916              -4.0135
        34                         -0.1361226              -3.7041
        35                         -0.0917073              -2.4955
       ...                                ...                  ...
        64                          0.8068905              21.9566
      -------------------------------------------------------------
                  HL-Gap            0.1245541 Eh            3.3893 eV
             Fermi-level           -0.2958083 Eh           -8.0494 eV

 SCC (total)                   0 d,  0 h,  0 min,  0.092 sec
 SCC setup                      ...        0 min,  0.000 sec (  0.137%)
 Dispersion                     ...        0 min,  0.000 sec (  0.135%)
 classical contributions        ...        0 min,  0.000 sec (  0.012%)
 integral evaluation            ...        0 min,  0.002 sec (  2.141%)
 iterations                     ...        0 min,  0.088 sec ( 95.493%)
 molecular gradient             ...        0 min,  0.002 sec (  1.968%)
 printout                       ...        0 min,  0.000 sec (  0.094%)

         :::::::::::::::::::::::::::::::::::::::::::::::::::::
         ::                     SUMMARY                     ::
         :::::::::::::::::::::::::::::::::::::::::::::::::::::
         :: total energy             -31.534004726251 Eh    ::
         :: gradient norm              0.051127922676 Eh/a0 ::
         :: HOMO-LUMO gap              3.389290121956 eV    ::
         ::.................................................::
         :: SCC energy               -32.049183593210 Eh    ::
         :: -> isotropic ES            0.004553725132 Eh    ::
         :: -> anisotropic ES          0.005666472888 Eh    ::
         :: -> anisotropic XC          0.022357627805 Eh    ::
         :: -> dispersion             -0.024444951685 Eh    ::
         :: repulsion energy           0.515178866959 Eh    ::
         :: add. restraining           0.000000000000 Eh    ::
         :: total charge               0.000000000000 e     ::
         :::::::::::::::::::::::::::::::::::::::::::::::::::::

      ----------------------------------------------------------- 
     |                   =====================                   |
     |                        A N C O P T                        |
     |                   =====================                   |
     |               Approximate Normal Coordinate               |
     |                Rational Function Optimizer                |
      ----------------------------------------------------------- 
      ----------------------------------------------------------- 
     |                   =====================                   |
     |                        A N C O P T                        |
     |                   =====================                   |
     |               Approximate Normal Coordinate               |
     |                Rational Function Optimizer                |
      ----------------------------------------------------------- 

          ...................................................
          :                      SETUP                      :
          :.................................................:
          :   optimization level           extreme          :
          :   max. optcycles                  5000          :
          :   ANC micro-cycles                  20          :
          :   degrees of freedom                72          :
          :.................................................:
          :   RF solver                   davidson          :
          :   write xtbopt.log                true          :
          :   linear?                        false          :
          :   energy convergence         0.5000000E-07 Eh   :
          :   grad. convergence          0.5000000E-04 Eh/α :
          :   maxmium RF displ.          1.0000000          :
          :   Hlow (freq-cutoff)         0.1000000E-01      :
          :   Hmax (freq-cutoff)         5.0000000          :
          :   S6 in model hess.         20.0000000          :
          ...................................................

generating ANC from model Hessian ...
Using Lindh-Hessian (1995)
 Shifting diagonal of input Hessian by   8.972816033961410E-003
 Lowest  eigenvalues of input Hessian
    0.000000    0.000000    0.000000    0.000000    0.000000    0.000000
    0.010000    0.010320    0.010833    0.011341    0.012411    0.013190
    0.016612    0.018581    0.018858    0.021299    0.023388    0.026136
 Highest eigenvalues
    1.347229    1.534960    1.562065    1.863652    1.965645    1.985886
 

........................................................................
.............................. CYCLE    1 ..............................
........................................................................

 iter      E             dE          RMSdq      gap      omega  full diag
   1    -32.0494482 -0.320494E+02  0.499E-07    3.39       0.0  T
   2    -32.0494482 -0.284217E-13  0.295E-07    3.39   66454.2  T
   3    -32.0494482  0.710543E-14  0.170E-07    3.39  100000.0  T
     SCC iter.                  ...        0 min,  0.075 sec
     gradient                   ...        0 min,  0.002 sec
 * total energy  :   -31.5340047 Eh     change       -0.1421085E-13 Eh
   gradient norm :     0.0511279 Eh/α   predicted     0.0000000E+00 (-100.00%)
   displ. norm   :     0.6518470 α      lambda       -0.2388888E-01
   maximum displ.:     0.3761657 α      in ANC's #12, #7, #6, ...

........................................................................
.............................. CYCLE    2 ..............................
........................................................................

 iter      E             dE          RMSdq      gap      omega  full diag
   1    -32.0662144 -0.320662E+02  0.398E-01    3.54       0.0  T
   2    -32.0664187 -0.204302E-03  0.203E-01    3.55       1.0  T
   3    -32.0664377 -0.190009E-04  0.735E-02    3.58       1.0  T
   4    -32.0664393 -0.157689E-05  0.291E-02    3.58       1.0  T
   5    -32.0664465 -0.716071E-05  0.958E-03    3.58       2.0  T
   6    -32.0664481 -0.165047E-05  0.453E-03    3.58       4.3  T
   7    -32.0664481 -0.399836E-07  0.146E-03    3.58      13.4  T
   8    -32.0664481 -0.610341E-08  0.599E-04    3.58      32.7  T
   9    -32.0664482 -0.556481E-08  0.183E-04    3.58     107.0  T
  10    -32.0664482 -0.173486E-09  0.640E-05    3.58     306.2  T
  11    -32.0664482 -0.273843E-10  0.303E-05    3.58     647.3  T
  12    -32.0664482 -0.574119E-11  0.118E-05    3.58    1658.6  T
  13    -32.0664482 -0.255795E-12  0.382E-06    3.58    5129.9  T
  14    -32.0664482  0.710543E-14  0.146E-06    3.58   13405.3  T
     SCC iter.                  ...        0 min,  0.088 sec
     gradient                   ...        0 min,  0.002 sec
 * total energy  :   -31.5475316 Eh     change       -0.1352685E-01 Eh
   gradient norm :     0.0169837 Eh/α   predicted    -0.1701969E-01 (  25.82%)
   displ. norm   :     0.3890227 α      lambda       -0.3918846E-02
   maximum displ.:     0.2032206 α      in ANC's #6, #7, #12, ...

........................................................................
.............................. CYCLE    3 ..............................
........................................................................

 iter      E             dE          RMSdq      gap      omega  full diag
   1    -32.0688806 -0.320689E+02  0.170E-01    3.56       0.0  T
   2    -32.0688906 -0.998815E-05  0.984E-02    3.56       1.0  T
   3    -32.0688904  0.236834E-06  0.191E-02    3.55       1.0  T
   4    -32.0688917 -0.134871E-05  0.488E-03    3.55       4.0  T
   5    -32.0688919 -0.180106E-06  0.219E-03    3.55       9.0  T
   6    -32.0688920 -0.700305E-07  0.968E-04    3.55      20.3  T
   7    -32.0688920 -0.426552E-08  0.374E-04    3.55      52.4  T
   8    -32.0688920 -0.554607E-09  0.132E-04    3.55     148.8  T
   9    -32.0688920 -0.530989E-10  0.622E-05    3.55     315.5  T
  10    -32.0688920 -0.305036E-10  0.203E-05    3.55     966.5  T
  11    -32.0688920 -0.373745E-11  0.972E-06    3.55    2017.8  T
  12    -32.0688920 -0.390799E-12  0.406E-06    3.55    4827.9  T
     SCC iter.                  ...        0 min,  0.077 sec
     gradient                   ...        0 min,  0.002 sec
 * total energy  :   -31.5504741 Eh     change       -0.2942496E-02 Eh
   gradient norm :     0.0087568 Eh/α   predicted    -0.2255971E-02 ( -23.33%)
   displ. norm   :     0.4646682 α      lambda       -0.2534046E-02
   maximum displ.:     0.2551866 α      in ANC's #6, #7, #2, ...

........................................................................
.............................. CYCLE    4 ..............................
........................................................................

 iter      E             dE          RMSdq      gap      omega  full diag
   1    -32.0697771 -0.320698E+02  0.178E-01    3.58       0.0  T
   2    -32.0697888 -0.117509E-04  0.106E-01    3.59       1.0  T
   3    -32.0697876  0.124091E-05  0.195E-02    3.59       1.0  T
   4    -32.0697895 -0.194266E-05  0.968E-03    3.59       2.0  T
   5    -32.0697906 -0.103561E-05  0.300E-03    3.59       6.5  T
   6    -32.0697907 -0.189734E-06  0.109E-03    3.59      18.0  T
   7    -32.0697907 -0.120487E-08  0.473E-04    3.59      41.5  T
   8    -32.0697907 -0.876469E-09  0.180E-04    3.59     108.9  T
   9    -32.0697907 -0.640391E-09  0.550E-05    3.59     356.5  T
  10    -32.0697907 -0.655831E-11  0.273E-05    3.59     718.3  T
  11    -32.0697907 -0.133582E-11  0.709E-06    3.59    2766.2  T
  12    -32.0697907 -0.426326E-12  0.292E-06    3.59    6717.5  T
     SCC iter.                  ...        0 min,  0.076 sec
     gradient                   ...        0 min,  0.002 sec
 * total energy  :   -31.5522195 Eh     change       -0.1745389E-02 Eh
   gradient norm :     0.0074355 Eh/α   predicted    -0.1540621E-02 ( -11.73%)
   displ. norm   :     0.3737531 α      lambda       -0.1005573E-02
   maximum displ.:     0.2233441 α      in ANC's #6, #2, #7, ...

........................................................................
.............................. CYCLE    5 ..............................
........................................................................

 iter      E             dE          RMSdq      gap      omega  full diag
   1    -32.0711387 -0.320711E+02  0.133E-01    3.57       0.0  T
   2    -32.0711415 -0.284568E-05  0.774E-02    3.56       1.0  T
   3    -32.0711412  0.383380E-06  0.809E-03    3.56       2.4  T
   4    -32.0711417 -0.560437E-06  0.442E-03    3.56       4.4  T
   5    -32.0711421 -0.332563E-06  0.136E-03    3.56      14.4  T
   6    -32.0711421 -0.628199E-08  0.506E-04    3.56      38.8  T
   7    -32.0711421 -0.355473E-08  0.215E-04    3.56      91.4  T
   8    -32.0711421 -0.199904E-09  0.802E-05    3.56     244.5  T
   9    -32.0711421 -0.471871E-10  0.335E-05    3.56     586.0  T
  10    -32.0711421 -0.942890E-11  0.120E-05    3.56    1635.9  T
  11    -32.0711421 -0.596856E-12  0.508E-06    3.56    3859.5  T
  12    -32.0711421 -0.852651E-13  0.244E-06    3.56    8029.0  T
     SCC iter.                  ...        0 min,  0.075 sec
     gradient                   ...        0 min,  0.002 sec
 * total energy  :   -31.5529260 Eh     change       -0.7065087E-03 Eh
   gradient norm :     0.0059869 Eh/α   predicted    -0.5730355E-03 ( -18.89%)
   displ. norm   :     0.3094999 α      lambda       -0.4986849E-03
   maximum displ.:     0.1715087 α      in ANC's #2, #6, #4, ...

........................................................................
.............................. CYCLE    6 ..............................
........................................................................

 iter      E             dE          RMSdq      gap      omega  full diag
   1    -32.0723610 -0.320724E+02  0.123E-01    3.56       0.0  T
   2    -32.0723628 -0.182715E-05  0.713E-02    3.57       1.0  T
   3    -32.0723625  0.265685E-06  0.731E-03    3.57       2.7  T
   4    -32.0723630 -0.471047E-06  0.328E-03    3.57       6.0  T
   5    -32.0723632 -0.163094E-06  0.921E-04    3.57      21.3  T
   6    -32.0723632 -0.611902E-08  0.444E-04    3.57      44.2  T
   7    -32.0723632 -0.440650E-09  0.142E-04    3.57     138.4  T
   8    -32.0723632 -0.780318E-10  0.548E-05    3.57     357.6  T
   9    -32.0723632 -0.322444E-10  0.231E-05    3.57     848.6  T
  10    -32.0723632 -0.392220E-11  0.125E-05    3.57    1565.8  T
  11    -32.0723632 -0.859757E-12  0.416E-06    3.57    4711.0  T
  12    -32.0723632 -0.355271E-13  0.143E-06    3.57   13760.1  T
     SCC iter.                  ...        0 min,  0.076 sec
     gradient                   ...        0 min,  0.002 sec
 * total energy  :   -31.5532860 Eh     change       -0.3600242E-03 Eh
   gradient norm :     0.0040657 Eh/α   predicted    -0.2732295E-03 ( -24.11%)
   displ. norm   :     0.2588596 α      lambda       -0.2877884E-03
   maximum displ.:     0.1771319 α      in ANC's #2, #4, #6, ...

........................................................................
.............................. CYCLE    7 ..............................
........................................................................

 iter      E             dE          RMSdq      gap      omega  full diag
   1    -32.0736953 -0.320737E+02  0.108E-01    3.56       0.0  T
   2    -32.0736968 -0.158402E-05  0.626E-02    3.56       1.0  T
   3    -32.0736968  0.652516E-07  0.683E-03    3.56       2.9  T
   4    -32.0736970 -0.270389E-06  0.256E-03    3.56       7.7  T
   5    -32.0736971 -0.647042E-07  0.877E-04    3.56      22.4  T
   6    -32.0736971 -0.896640E-08  0.398E-04    3.56      49.3  T
   7    -32.0736971 -0.419718E-09  0.978E-05    3.56     200.5  T
   8    -32.0736971 -0.290115E-10  0.369E-05    3.56     531.7  T
   9    -32.0736971 -0.142961E-10  0.130E-05    3.56    1503.1  T
  10    -32.0736971 -0.102318E-11  0.598E-06    3.56    3279.9  T
  11    -32.0736971 -0.227374E-12  0.238E-06    3.56    8244.2  T
     SCC iter.                  ...        0 min,  0.075 sec
     gradient                   ...        0 min,  0.002 sec
 * total energy  :   -31.5535044 Eh     change       -0.2184022E-03 Eh
   gradient norm :     0.0034550 Eh/α   predicted    -0.1535426E-03 ( -29.70%)
   displ. norm   :     0.2165152 α      lambda       -0.1895655E-03
   maximum displ.:     0.1675034 α      in ANC's #2, #4, #6, ...

........................................................................
.............................. CYCLE    8 ..............................
........................................................................

 iter      E             dE          RMSdq      gap      omega  full diag
   1    -32.0743630 -0.320744E+02  0.926E-02    3.56       0.0  T
   2    -32.0743638 -0.758361E-06  0.539E-02    3.56       1.0  T
   3    -32.0743637  0.452169E-07  0.475E-03    3.56       4.1  T
   4    -32.0743639 -0.161667E-06  0.182E-03    3.56      10.8  T
   5    -32.0743639 -0.388788E-07  0.648E-04    3.56      30.3  T
   6    -32.0743639 -0.584031E-08  0.294E-04    3.56      66.6  T
   7    -32.0743639 -0.176051E-09  0.767E-05    3.56     255.7  T
   8    -32.0743639 -0.923208E-10  0.210E-05    3.56     935.2  T
   9    -32.0743639 -0.274980E-11  0.932E-06    3.56    2104.6  T
  10    -32.0743639 -0.561329E-12  0.293E-06    3.56    6691.2  T
     SCC iter.                  ...        0 min,  0.078 sec
     gradient                   ...        0 min,  0.002 sec
 * total energy  :   -31.5536608 Eh     change       -0.1563655E-03 Eh
   gradient norm :     0.0037915 Eh/α   predicted    -0.9922646E-04 ( -36.54%)
   displ. norm   :     0.1924663 α      lambda       -0.1542439E-03
   maximum displ.:     0.1569023 α      in ANC's #2, #4, #3, ...

........................................................................
.............................. CYCLE    9 ..............................
........................................................................

 iter      E             dE          RMSdq      gap      omega  full diag
   1    -32.0747141 -0.320747E+02  0.796E-02    3.57       0.0  T
   2    -32.0747145 -0.423758E-06  0.463E-02    3.57       1.0  T
   3    -32.0747145 -0.383152E-07  0.297E-03    3.57       6.6  T
   4    -32.0747146 -0.372163E-07  0.137E-03    3.57      14.3  T
   5    -32.0747146 -0.253569E-07  0.439E-04    3.57      44.7  T
   6    -32.0747146 -0.128406E-08  0.216E-04    3.57      91.0  T
   7    -32.0747146 -0.192308E-09  0.598E-05    3.57     328.2  T
   8    -32.0747146 -0.490843E-10  0.177E-05    3.57    1104.9  T
   9    -32.0747146 -0.254374E-11  0.885E-06    3.57    2217.1  T
  10    -32.0747146 -0.561329E-12  0.347E-06    3.57    5645.9  T
     SCC iter.                  ...        0 min,  0.075 sec
     gradient                   ...        0 min,  0.002 sec
 * total energy  :   -31.5537926 Eh     change       -0.1318038E-03 Eh
   gradient norm :     0.0031843 Eh/α   predicted    -0.7997943E-04 ( -39.32%)
   displ. norm   :     0.1778546 α      lambda       -0.1265083E-03
   maximum displ.:     0.1498617 α      in ANC's #2, #4, #3, ...

........................................................................
.............................. CYCLE   10 ..............................
........................................................................

 iter      E             dE          RMSdq      gap      omega  full diag
   1    -32.0745697 -0.320746E+02  0.735E-02    3.57       0.0  T
   2    -32.0745700 -0.291080E-06  0.428E-02    3.57       1.0  T
   3    -32.0745700 -0.257460E-07  0.223E-03    3.57       8.8  T
   4    -32.0745700 -0.275177E-07  0.114E-03    3.57      17.2  T
   5    -32.0745701 -0.238311E-07  0.396E-04    3.57      49.5  T
   6    -32.0745701 -0.660599E-09  0.169E-04    3.57     116.4  T
   7    -32.0745701 -0.105686E-09  0.412E-05    3.57     475.5  T
   8    -32.0745701 -0.492406E-11  0.153E-05    3.57    1283.3  T
   9    -32.0745701 -0.232347E-11  0.744E-06    3.57    2634.4  T
  10    -32.0745701 -0.390799E-12  0.319E-06    3.57    6156.9  T
     SCC iter.                  ...        0 min,  0.078 sec
     gradient                   ...        0 min,  0.002 sec
 * total energy  :   -31.5539003 Eh     change       -0.1077319E-03 Eh
   gradient norm :     0.0021102 Eh/α   predicted    -0.6525572E-04 ( -39.43%)
   displ. norm   :     0.1543313 α      lambda       -0.9514032E-04
   maximum displ.:     0.1345703 α      in ANC's #2, #4, #1, ...

........................................................................
.............................. CYCLE   11 ..............................
........................................................................

 iter      E             dE          RMSdq      gap      omega  full diag
   1    -32.0744819 -0.320745E+02  0.647E-02    3.58       0.0  T
   2    -32.0744821 -0.198738E-06  0.378E-02    3.58       1.0  T
   3    -32.0744821 -0.235680E-07  0.223E-03    3.58       8.8  T
   4    -32.0744822 -0.289400E-07  0.857E-04    3.58      22.9  T
   5    -32.0744822 -0.488570E-08  0.401E-04    3.58      48.9  T
   6    -32.0744822 -0.126044E-08  0.192E-04    3.58     102.0  T
   7    -32.0744822 -0.182460E-09  0.358E-05    3.58     548.3  T
   8    -32.0744822 -0.152625E-10  0.145E-05    3.58    1355.1  T
   9    -32.0744822 -0.156319E-11  0.625E-06    3.58    3140.2  T
  10    -32.0744822 -0.433431E-12  0.272E-06    3.58    7213.2  T
     SCC iter.                  ...        0 min,  0.074 sec
     gradient                   ...        0 min,  0.002 sec
 * total energy  :   -31.5539833 Eh     change       -0.8297174E-04 Eh
   gradient norm :     0.0017613 Eh/α   predicted    -0.4870424E-04 ( -41.30%)
   displ. norm   :     0.2226109 α      lambda       -0.8651587E-04
   maximum displ.:     0.1957811 α      in ANC's #2, #1, #4, ...

........................................................................
.............................. CYCLE   12 ..............................
........................................................................

 iter      E             dE          RMSdq      gap      omega  full diag
   1    -32.0742724 -0.320743E+02  0.971E-02    3.58       0.0  T
   2    -32.0742728 -0.355720E-06  0.569E-02    3.58       1.0  T
   3    -32.0742728  0.126132E-07  0.327E-03    3.58       6.0  T
   4    -32.0742729 -0.111286E-06  0.123E-03    3.58      15.9  T
   5    -32.0742729 -0.118806E-07  0.579E-04    3.58      33.8  T
   6    -32.0742729 -0.277920E-08  0.265E-04    3.58      73.9  T
   7    -32.0742729 -0.262546E-09  0.556E-05    3.58     352.9  T
   8    -32.0742729 -0.169607E-10  0.256E-05    3.58     765.7  T
   9    -32.0742729 -0.802913E-11  0.889E-06    3.58    2205.5  T
  10    -32.0742729 -0.902389E-12  0.402E-06    3.58    4874.7  T
     SCC iter.                  ...        0 min,  0.075 sec
     gradient                   ...        0 min,  0.002 sec
 * total energy  :   -31.5540966 Eh     change       -0.1133411E-03 Eh
   gradient norm :     0.0028472 Eh/α   predicted    -0.4421294E-04 ( -60.99%)
   displ. norm   :     0.1749947 α      lambda       -0.1053732E-03
   maximum displ.:     0.1506219 α      in ANC's #2, #1, #5, ...

........................................................................
.............................. CYCLE   13 ..............................
........................................................................

 iter      E             dE          RMSdq      gap      omega  full diag
   1    -32.0741512 -0.320742E+02  0.766E-02    3.59       0.0  T
   2    -32.0741514 -0.174403E-06  0.450E-02    3.59       1.0  T
   3    -32.0741513  0.170659E-07  0.275E-03    3.59       7.1  T
   4    -32.0741514 -0.824334E-07  0.978E-04    3.59      20.1  T
   5    -32.0741514 -0.482224E-08  0.483E-04    3.59      40.6  T
   6    -32.0741514 -0.198524E-08  0.211E-04    3.59      93.0  T
   7    -32.0741514 -0.148653E-09  0.367E-05    3.59     534.7  T
   8    -32.0741514 -0.185452E-10  0.157E-05    3.59    1251.1  T
   9    -32.0741514 -0.234479E-11  0.582E-06    3.59    3368.9  T
  10    -32.0741514 -0.142109E-12  0.214E-06    3.59    9158.9  T
     SCC iter.                  ...        0 min,  0.073 sec
     gradient                   ...        0 min,  0.002 sec
 * total energy  :   -31.5541950 Eh     change       -0.9838220E-04 Eh
   gradient norm :     0.0033751 Eh/α   predicted    -0.5430050E-04 ( -44.81%)
   displ. norm   :     0.3075191 α      lambda       -0.1877939E-03
   maximum displ.:     0.2581421 α      in ANC's #2, #1, #5, ...

........................................................................
.............................. CYCLE   14 ..............................
........................................................................

 iter      E             dE          RMSdq      gap      omega  full diag
   1    -32.0736084 -0.320736E+02  0.135E-01    3.59       0.0  T
   2    -32.0736089 -0.532497E-06  0.789E-02    3.59       1.0  T
   3    -32.0736088  0.100950E-06  0.457E-03    3.59       4.3  T
   4    -32.0736091 -0.277943E-06  0.180E-03    3.59      10.9  T
   5    -32.0736091 -0.278167E-07  0.834E-04    3.59      23.5  T
   6    -32.0736091 -0.414357E-08  0.350E-04    3.59      56.1  T
   7    -32.0736091 -0.211386E-09  0.784E-05    3.59     250.1  T
   8    -32.0736091 -0.100350E-09  0.296E-05    3.59     661.8  T
   9    -32.0736091 -0.103597E-10  0.120E-05    3.59    1628.3  T
  10    -32.0736091 -0.419220E-12  0.341E-06    3.59    5757.8  T
  11    -32.0736091 -0.568434E-13  0.127E-06    3.59   15397.8  T
     SCC iter.                  ...        0 min,  0.076 sec
     gradient                   ...        0 min,  0.003 sec
 * total energy  :   -31.5543683 Eh     change       -0.1733289E-03 Eh
   gradient norm :     0.0036971 Eh/α   predicted    -0.1027821E-03 ( -40.70%)
   displ. norm   :     0.4939101 α      lambda       -0.2810565E-03
   maximum displ.:     0.4147080 α      in ANC's #2, #1, #5, ...

........................................................................
.............................. CYCLE   15 ..............................
........................................................................

 iter      E             dE          RMSdq      gap      omega  full diag
   1    -32.0715783 -0.320716E+02  0.216E-01    3.58       0.0  T
   2    -32.0715800 -0.166668E-05  0.127E-01    3.59       1.0  T
   3    -32.0715794  0.573857E-06  0.808E-03    3.59       2.4  T
   4    -32.0715805 -0.104627E-05  0.322E-03    3.59       6.1  T
   5    -32.0715806 -0.113917E-06  0.139E-03    3.59      14.1  T
   6    -32.0715806 -0.927083E-08  0.579E-04    3.59      33.9  T
   7    -32.0715806 -0.437183E-09  0.148E-04    3.59     132.6  T
   8    -32.0715806 -0.325102E-09  0.487E-05    3.59     403.0  T
   9    -32.0715806 -0.347953E-10  0.175E-05    3.59    1122.7  T
  10    -32.0715806 -0.127898E-11  0.642E-06    3.59    3056.4  T
  11    -32.0715806 -0.270006E-12  0.236E-06    3.59    8300.0  T
     SCC iter.                  ...        0 min,  0.080 sec
     gradient                   ...        0 min,  0.003 sec
 * total energy  :   -31.5545933 Eh     change       -0.2249911E-03 Eh
   gradient norm :     0.0054644 Eh/α   predicted    -0.1748131E-03 ( -22.30%)
   displ. norm   :     0.5069089 α      lambda       -0.2441088E-03
   maximum displ.:     0.4325790 α      in ANC's #2, #1, #5, ...

........................................................................
.............................. CYCLE   16 ..............................
........................................................................

 iter      E             dE          RMSdq      gap      omega  full diag
   1    -32.0699506 -0.320700E+02  0.223E-01    3.59       0.0  T
   2    -32.0699525 -0.181970E-05  0.131E-01    3.59       1.0  T
   3    -32.0699512  0.128901E-05  0.975E-03    3.59       2.0  T
   4    -32.0699530 -0.183390E-05  0.357E-03    3.59       5.5  T
   5    -32.0699532 -0.153199E-06  0.142E-03    3.59      13.8  T
   6    -32.0699532 -0.711769E-08  0.602E-04    3.59      32.6  T
   7    -32.0699532 -0.316589E-09  0.138E-04    3.59     142.4  T
   8    -32.0699532 -0.300581E-09  0.449E-05    3.59     437.0  T
   9    -32.0699532 -0.206768E-10  0.186E-05    3.59    1057.0  T
  10    -32.0699532 -0.147793E-11  0.767E-06    3.59    2558.4  T
  11    -32.0699532 -0.405009E-12  0.246E-06    3.59    7975.2  T
     SCC iter.                  ...        0 min,  0.085 sec
     gradient                   ...        0 min,  0.005 sec
 * total energy  :   -31.5547545 Eh     change       -0.1611443E-03 Eh
   gradient norm :     0.0077316 Eh/α   predicted    -0.1534181E-03 (  -4.79%)
   displ. norm   :     0.2539063 α      lambda       -0.2183466E-03
   maximum displ.:     0.2187635 α      in ANC's #2, #1, #44, ...

........................................................................
.............................. CYCLE   17 ..............................
........................................................................

 iter      E             dE          RMSdq      gap      omega  full diag
   1    -32.0744358 -0.320744E+02  0.114E-01    3.61       0.0  T
   2    -32.0744373 -0.142820E-05  0.668E-02    3.61       1.0  T
   3    -32.0744363  0.943622E-06  0.840E-03    3.61       2.3  T
   4    -32.0744375 -0.120366E-05  0.256E-03    3.61       7.7  T
   5    -32.0744376 -0.711859E-07  0.129E-03    3.61      15.2  T
   6    -32.0744376 -0.504154E-08  0.452E-04    3.61      43.4  T
   7    -32.0744376 -0.154634E-08  0.153E-04    3.61     127.9  T
   8    -32.0744376 -0.344329E-10  0.582E-05    3.61     337.1  T
   9    -32.0744376 -0.544276E-10  0.169E-05    3.61    1158.8  T
  10    -32.0744376 -0.139266E-11  0.943E-06    3.61    2078.8  T
  11    -32.0744376 -0.646594E-12  0.167E-06    3.61   11772.9  T
     SCC iter.                  ...        0 min,  0.083 sec
     gradient                   ...        0 min,  0.002 sec
 * total energy  :   -31.5548963 Eh     change       -0.1418382E-03 Eh
   gradient norm :     0.0037001 Eh/α   predicted    -0.1162135E-03 ( -18.07%)
   displ. norm   :     0.3797041 α      lambda       -0.1316516E-03
   maximum displ.:     0.3237434 α      in ANC's #2, #1, #5, ...

........................................................................
.............................. CYCLE   18 ..............................
........................................................................

 iter      E             dE          RMSdq      gap      omega  full diag
   1    -32.0741015 -0.320741E+02  0.175E-01    3.60       0.0  T
   2    -32.0741027 -0.121312E-05  0.102E-01    3.61       1.0  T
   3    -32.0741009  0.183855E-05  0.975E-03    3.61       2.0  T
   4    -32.0741032 -0.230467E-05  0.259E-03    3.61       7.6  T
   5    -32.0741033 -0.779569E-07  0.108E-03    3.61      18.1  T
   6    -32.0741033 -0.267487E-08  0.459E-04    3.61      42.7  T
   7    -32.0741033 -0.319929E-09  0.122E-04    3.61     160.9  T
   8    -32.0741033 -0.255227E-09  0.360E-05    3.61     544.8  T
   9    -32.0741033 -0.493117E-11  0.172E-05    3.61    1137.8  T
  10    -32.0741033 -0.966338E-12  0.793E-06    3.61    2472.2  T
  11    -32.0741033 -0.603961E-12  0.163E-06    3.61   12020.0  T
     SCC iter.                  ...        0 min,  0.081 sec
     gradient                   ...        0 min,  0.003 sec
 * total energy  :   -31.5549758 Eh     change       -0.7948746E-04 Eh
   gradient norm :     0.0046993 Eh/α   predicted    -0.7531782E-04 (  -5.25%)
   displ. norm   :     0.1993325 α      lambda       -0.8758409E-04
   maximum displ.:     0.1627117 α      in ANC's #2, #1, #5, ...

........................................................................
.............................. CYCLE   19 ..............................
........................................................................

 iter      E             dE          RMSdq      gap      omega  full diag
   1    -32.0758079 -0.320758E+02  0.945E-02    3.62       0.0  T
   2    -32.0758083 -0.426058E-06  0.553E-02    3.62       1.0  T
   3    -32.0758079  0.420223E-06  0.551E-03    3.62       3.6  T
   4    -32.0758084 -0.565731E-06  0.159E-03    3.62      12.4  T
   5    -32.0758085 -0.251884E-07  0.650E-04    3.62      30.2  T
   6    -32.0758085 -0.146425E-08  0.300E-04    3.62      65.4  T
   7    -32.0758085 -0.417373E-09  0.916E-05    3.62     214.1  T
   8    -32.0758085 -0.122910E-09  0.308E-05    3.62     636.3  T
   9    -32.0758085 -0.768807E-11  0.105E-05    3.62    1873.7  T
  10    -32.0758085 -0.100897E-11  0.517E-06    3.62    3794.9  T
  11    -32.0758085 -0.177636E-12  0.124E-06    3.62   15877.8  T
     SCC iter.                  ...        0 min,  0.082 sec
     gradient                   ...        0 min,  0.002 sec
 * total energy  :   -31.5550315 Eh     change       -0.5568424E-04 Eh
   gradient norm :     0.0034443 Eh/α   predicted    -0.4553366E-04 ( -18.23%)
   displ. norm   :     0.1631288 α      lambda       -0.6673788E-04
   maximum displ.:     0.1213618 α      in ANC's #2, #1, #4, ...

........................................................................
.............................. CYCLE   20 ..............................
........................................................................

 iter      E             dE          RMSdq      gap      omega  full diag
   1    -32.0779689 -0.320780E+02  0.782E-02    3.63       0.0  T
   2    -32.0779695 -0.542010E-06  0.456E-02    3.63       1.0  T
   3    -32.0779692  0.286585E-06  0.540E-03    3.63       3.6  T
   4    -32.0779696 -0.388952E-06  0.170E-03    3.63      11.6  T
   5    -32.0779696 -0.223639E-07  0.762E-04    3.63      25.7  T
   6    -32.0779696 -0.380852E-08  0.357E-04    3.63      54.9  T
   7    -32.0779696 -0.763869E-09  0.986E-05    3.63     198.9  T
   8    -32.0779696 -0.415810E-10  0.304E-05    3.63     644.8  T
   9    -32.0779696 -0.101537E-10  0.117E-05    3.63    1682.4  T
  10    -32.0779696 -0.142109E-12  0.636E-06    3.63    3083.6  T
  11    -32.0779696 -0.312639E-12  0.201E-06    3.63    9758.0  T
     SCC iter.                  ...        0 min,  0.076 sec
     gradient                   ...        0 min,  0.002 sec
 * total energy  :   -31.5550668 Eh     change       -0.3534985E-04 Eh
   gradient norm :     0.0039825 Eh/α   predicted    -0.3425809E-04 (  -3.09%)
   displ. norm   :     0.3650421 α      lambda       -0.9057533E-04
   maximum displ.:     0.2882427 α      in ANC's #2, #1, #4, ...
 * RMSD in coord.:     0.9616752 α      energy gain  -0.2106209E-01 Eh

generating ANC from model Hessian ...
Using Lindh-Hessian (1995)
 Shifting diagonal of input Hessian by   9.220167240029435E-003
 Lowest  eigenvalues of input Hessian
    0.000000    0.000000    0.000000    0.000000    0.000000    0.000000
    0.010000    0.010355    0.010598    0.011260    0.012213    0.012551
    0.015265    0.017257    0.018572    0.019361    0.023935    0.024262
 Highest eigenvalues
    1.358393    1.548239    1.569947    1.877592    1.980559    1.997745
 

........................................................................
.............................. CYCLE   21 ..............................
........................................................................

 iter      E             dE          RMSdq      gap      omega  full diag
   1    -32.0745977 -0.320746E+02  0.176E-01    3.63       0.0  T
   2    -32.0745991 -0.139653E-05  0.103E-01    3.63       1.0  T
   3    -32.0745985  0.605942E-06  0.825E-03    3.63       2.4  T
   4    -32.0745994 -0.953974E-06  0.300E-03    3.63       6.5  T
   5    -32.0745995 -0.106183E-06  0.119E-03    3.63      16.5  T
   6    -32.0745996 -0.139234E-07  0.611E-04    3.63      32.1  T
   7    -32.0745996 -0.112407E-08  0.134E-04    3.63     145.9  T
   8    -32.0745996 -0.208424E-09  0.560E-05    3.63     350.0  T
   9    -32.0745996 -0.412896E-10  0.204E-05    3.63     962.5  T
  10    -32.0745996 -0.206057E-12  0.786E-06    3.63    2495.0  T
  11    -32.0745996 -0.646594E-12  0.304E-06    3.63    6445.8  T
     SCC iter.                  ...        0 min,  0.074 sec
     gradient                   ...        0 min,  0.002 sec
 * total energy  :   -31.5551026 Eh     change       -0.3579603E-04 Eh
   gradient norm :     0.0038983 Eh/α   predicted     0.0000000E+00 (-100.00%)
   displ. norm   :     0.0491997 α      lambda       -0.6720403E-04
   maximum displ.:     0.0407815 α      in ANC's #4, #5, #2, ...

........................................................................
.............................. CYCLE   22 ..............................
........................................................................

 iter      E             dE          RMSdq      gap      omega  full diag
   1    -32.0761010 -0.320761E+02  0.203E-02    3.64       0.0  T
   2    -32.0761011 -0.122104E-06  0.119E-02    3.63       1.7  T
   3    -32.0761010  0.991761E-07  0.275E-03    3.63       7.1  T
   4    -32.0761011 -0.122522E-06  0.740E-04    3.63      26.5  T
   5    -32.0761012 -0.551333E-08  0.348E-04    3.63      56.3  T
   6    -32.0761012 -0.177083E-08  0.139E-04    3.63     140.7  T
   7    -32.0761012 -0.176627E-09  0.540E-05    3.63     363.1  T
   8    -32.0761012 -0.498801E-11  0.159E-05    3.63    1236.3  T
   9    -32.0761012 -0.167688E-11  0.868E-06    3.63    2259.9  T
  10    -32.0761012 -0.177636E-12  0.403E-06    3.63    4867.7  T
     SCC iter.                  ...        0 min,  0.074 sec
     gradient                   ...        0 min,  0.002 sec
 * total energy  :   -31.5551506 Eh     change       -0.4799026E-04 Eh
   gradient norm :     0.0014171 Eh/α   predicted    -0.3380174E-04 ( -29.57%)
   displ. norm   :     0.1128301 α      lambda       -0.4307123E-04
   maximum displ.:     0.0933276 α      in ANC's #4, #1, #2, ...

........................................................................
.............................. CYCLE   23 ..............................
........................................................................

 iter      E             dE          RMSdq      gap      omega  full diag
   1    -32.0772734 -0.320773E+02  0.309E-02    3.64       0.0  T
   2    -32.0772736 -0.260044E-06  0.182E-02    3.64       1.1  T
   3    -32.0772735  0.118719E-06  0.360E-03    3.65       5.4  T
   4    -32.0772737 -0.159819E-06  0.128E-03    3.64      15.3  T
   5    -32.0772737 -0.152170E-07  0.431E-04    3.64      45.5  T
   6    -32.0772737 -0.293837E-08  0.153E-04    3.64     128.1  T
   7    -32.0772737 -0.124999E-09  0.712E-05    3.64     275.6  T
   8    -32.0772737 -0.724754E-12  0.293E-05    3.64     669.1  T
   9    -32.0772737 -0.104308E-10  0.871E-06    3.64    2252.0  T
  10    -32.0772737 -0.781597E-13  0.432E-06    3.64    4538.6  T
     SCC iter.                  ...        0 min,  0.074 sec
     gradient                   ...        0 min,  0.002 sec
 * total energy  :   -31.5551896 Eh     change       -0.3896432E-04 Eh
   gradient norm :     0.0023802 Eh/α   predicted    -0.2172607E-04 ( -44.24%)
   displ. norm   :     0.0547417 α      lambda       -0.2382712E-04
   maximum displ.:     0.0411392 α      in ANC's #4, #1, #2, ...

........................................................................
.............................. CYCLE   24 ..............................
........................................................................

 iter      E             dE          RMSdq      gap      omega  full diag
   1    -32.0769864 -0.320770E+02  0.158E-02    3.64       0.0  T
   2    -32.0769864 -0.510169E-07  0.905E-03    3.64       2.2  T
   3    -32.0769864  0.989502E-09  0.121E-03    3.64      16.2  T
   4    -32.0769864 -0.299095E-08  0.509E-04    3.64      38.5  T
   5    -32.0769864 -0.517991E-08  0.150E-04    3.64     130.8  T
   6    -32.0769864 -0.170459E-09  0.919E-05    3.64     213.5  T
   7    -32.0769864 -0.427676E-10  0.256E-05    3.64     766.8  T
   8    -32.0769864 -0.163425E-12  0.880E-06    3.64    2228.3  T
   9    -32.0769864 -0.116529E-11  0.240E-06    3.64    8171.0  T
     SCC iter.                  ...        0 min,  0.075 sec
     gradient                   ...        0 min,  0.002 sec
 * total energy  :   -31.5552110 Eh     change       -0.2139082E-04 Eh
   gradient norm :     0.0020140 Eh/α   predicted    -0.1195299E-04 ( -44.12%)
   displ. norm   :     0.1161993 α      lambda       -0.4687031E-04
   maximum displ.:     0.0790512 α      in ANC's #4, #1, #2, ...

........................................................................
.............................. CYCLE   25 ..............................
........................................................................

 iter      E             dE          RMSdq      gap      omega  full diag
   1    -32.0761375 -0.320761E+02  0.364E-02    3.63       0.0  T
   2    -32.0761377 -0.164723E-06  0.213E-02    3.63       1.0  T
   3    -32.0761376  0.557314E-07  0.270E-03    3.63       7.3  T
   4    -32.0761377 -0.776070E-07  0.103E-03    3.63      19.1  T
   5    -32.0761377 -0.104566E-07  0.424E-04    3.63      46.2  T
   6    -32.0761377 -0.270471E-08  0.215E-04    3.63      91.3  T
   7    -32.0761377 -0.184073E-09  0.482E-05    3.63     406.9  T
   8    -32.0761377 -0.184457E-10  0.171E-05    3.63    1148.9  T
   9    -32.0761377 -0.262190E-11  0.582E-06    3.63    3369.4  T
  10    -32.0761377 -0.163425E-12  0.303E-06    3.63    6474.3  T
     SCC iter.                  ...        0 min,  0.074 sec
     gradient                   ...        0 min,  0.002 sec
 * total energy  :   -31.5552486 Eh     change       -0.3767543E-04 Eh
   gradient norm :     0.0011268 Eh/α   predicted    -0.2375444E-04 ( -36.95%)
   displ. norm   :     0.2309718 α      lambda       -0.4027866E-04
   maximum displ.:     0.1518379 α      in ANC's #4, #1, #2, ...

........................................................................
.............................. CYCLE   26 ..............................
........................................................................

 iter      E             dE          RMSdq      gap      omega  full diag
   1    -32.0750716 -0.320751E+02  0.745E-02    3.62       0.0  T
   2    -32.0750722 -0.574790E-06  0.436E-02    3.62       1.0  T
   3    -32.0750721  0.867228E-07  0.451E-03    3.62       4.3  T
   4    -32.0750723 -0.157889E-06  0.180E-03    3.62      10.9  T
   5    -32.0750723 -0.336367E-07  0.728E-04    3.62      26.9  T
   6    -32.0750723 -0.573775E-08  0.404E-04    3.62      48.5  T
   7    -32.0750723 -0.489273E-09  0.667E-05    3.62     294.2  T
   8    -32.0750723 -0.507754E-10  0.312E-05    3.62     628.4  T
   9    -32.0750723 -0.832756E-11  0.114E-05    3.62    1722.7  T
  10    -32.0750723 -0.149214E-12  0.363E-06    3.62    5408.3  T
  11    -32.0750723 -0.426326E-13  0.170E-06    3.62   11556.2  T
     SCC iter.                  ...        0 min,  0.075 sec
     gradient                   ...        0 min,  0.002 sec
 * total energy  :   -31.5552886 Eh     change       -0.3996836E-04 Eh
   gradient norm :     0.0020186 Eh/α   predicted    -0.2061998E-04 ( -48.41%)
   displ. norm   :     0.1534273 α      lambda        0.8943300E-05
   maximum displ.:     0.1008734 α      in ANC's #4, #1, #2, ...

........................................................................
.............................. CYCLE   27 ..............................
........................................................................

 iter      E             dE          RMSdq      gap      omega  full diag
   1    -32.0739565 -0.320740E+02  0.496E-02    3.61       0.0  T
   2    -32.0739567 -0.272542E-06  0.290E-02    3.61       1.0  T
   3    -32.0739567  0.405259E-07  0.324E-03    3.61       6.1  T
   4    -32.0739568 -0.782486E-07  0.117E-03    3.62      16.7  T
   5    -32.0739568 -0.108391E-07  0.517E-04    3.61      37.9  T
   6    -32.0739568 -0.303902E-08  0.287E-04    3.61      68.4  T
   7    -32.0739568 -0.267271E-09  0.469E-05    3.61     418.6  T
   8    -32.0739568 -0.234692E-10  0.209E-05    3.61     939.3  T
   9    -32.0739568 -0.356692E-11  0.866E-06    3.61    2263.6  T
  10    -32.0739568 -0.497380E-13  0.265E-06    3.61    7392.8  T
     SCC iter.                  ...        0 min,  0.074 sec
     gradient                   ...        0 min,  0.002 sec
 * total energy  :   -31.5552902 Eh     change       -0.1575705E-05 Eh
   gradient norm :     0.0034942 Eh/α   predicted     0.4576710E-05 (-390.45%)
   displ. norm   :     0.0160762 α      lambda       -0.2246927E-04
   maximum displ.:     0.0082391 α      in ANC's #5, #1, #6, ...

........................................................................
.............................. CYCLE   28 ..............................
........................................................................

 iter      E             dE          RMSdq      gap      omega  full diag
   1    -32.0750674 -0.320751E+02  0.905E-03    3.62       0.0  T
   2    -32.0750675 -0.421361E-07  0.502E-03    3.62       3.9  T
   3    -32.0750675  0.873359E-08  0.149E-03    3.62      13.2  T
   4    -32.0750675 -0.154787E-07  0.469E-04    3.62      41.9  T
   5    -32.0750675 -0.688708E-09  0.207E-04    3.62      94.9  T
   6    -32.0750675 -0.386891E-09  0.109E-04    3.62     180.4  T
   7    -32.0750675 -0.440110E-10  0.317E-05    3.62     618.2  T
   8    -32.0750675 -0.218847E-11  0.731E-06    3.62    2683.6  T
   9    -32.0750675 -0.390799E-12  0.226E-06    3.62    8671.1  T
     SCC iter.                  ...        0 min,  0.074 sec
     gradient                   ...        0 min,  0.002 sec
 * total energy  :   -31.5553084 Eh     change       -0.1818613E-04 Eh
   gradient norm :     0.0021640 Eh/α   predicted    -0.1123841E-04 ( -38.20%)
   displ. norm   :     0.0869897 α      lambda       -0.3712305E-04
   maximum displ.:     0.0632349 α      in ANC's #1, #2, #4, ...

........................................................................
.............................. CYCLE   29 ..............................
........................................................................

 iter      E             dE          RMSdq      gap      omega  full diag
   1    -32.0768094 -0.320768E+02  0.372E-02    3.63       0.0  T
   2    -32.0768095 -0.145400E-06  0.216E-02    3.63       1.0  T
   3    -32.0768094  0.967777E-07  0.289E-03    3.63       6.8  T
   4    -32.0768095 -0.125776E-06  0.944E-04    3.63      20.8  T
   5    -32.0768096 -0.101524E-07  0.295E-04    3.63      66.5  T
   6    -32.0768096 -0.562331E-09  0.141E-04    3.63     139.0  T
   7    -32.0768096 -0.435918E-10  0.522E-05    3.63     375.5  T
   8    -32.0768096 -0.197815E-10  0.128E-05    3.63    1531.6  T
   9    -32.0768096 -0.245137E-11  0.598E-06    3.63    3280.8  T
  10    -32.0768096 -0.490274E-12  0.220E-06    3.63    8927.2  T
     SCC iter.                  ...        0 min,  0.074 sec
     gradient                   ...        0 min,  0.002 sec
 * total energy  :   -31.5553334 Eh     change       -0.2501778E-04 Eh
   gradient norm :     0.0006007 Eh/α   predicted    -0.1870709E-04 ( -25.22%)
   displ. norm   :     0.1585738 α      lambda       -0.1719712E-04
   maximum displ.:     0.1113204 α      in ANC's #1, #2, #4, ...

........................................................................
.............................. CYCLE   30 ..............................
........................................................................

 iter      E             dE          RMSdq      gap      omega  full diag
   1    -32.0772954 -0.320773E+02  0.638E-02    3.64       0.0  T
   2    -32.0772957 -0.287741E-06  0.373E-02    3.64       1.0  T
   3    -32.0772956  0.101760E-06  0.362E-03    3.64       5.4  T
   4    -32.0772958 -0.146772E-06  0.143E-03    3.64      13.7  T
   5    -32.0772958 -0.245271E-07  0.446E-04    3.64      43.9  T
   6    -32.0772958 -0.145418E-08  0.210E-04    3.64      93.6  T
   7    -32.0772958 -0.790052E-10  0.662E-05    3.64     296.3  T
   8    -32.0772958 -0.402167E-10  0.237E-05    3.64     825.9  T
   9    -32.0772958 -0.109637E-10  0.836E-06    3.64    2347.1  T
  10    -32.0772958 -0.106581E-12  0.318E-06    3.64    6170.4  T
     SCC iter.                  ...        0 min,  0.074 sec
     gradient                   ...        0 min,  0.002 sec
 * total energy  :   -31.5553550 Eh     change       -0.2163803E-04 Eh
   gradient norm :     0.0012965 Eh/α   predicted    -0.8695038E-05 ( -59.82%)
   displ. norm   :     0.1265068 α      lambda       -0.1526845E-04
   maximum displ.:     0.0896967 α      in ANC's #1, #2, #4, ...

........................................................................
.............................. CYCLE   31 ..............................
........................................................................

 iter      E             dE          RMSdq      gap      omega  full diag
   1    -32.0768601 -0.320769E+02  0.536E-02    3.64       0.0  T
   2    -32.0768603 -0.172876E-06  0.314E-02    3.64       1.0  T
   3    -32.0768602  0.798844E-07  0.307E-03    3.64       6.4  T
   4    -32.0768603 -0.115395E-06  0.103E-03    3.64      19.0  T
   5    -32.0768603 -0.112939E-07  0.426E-04    3.64      46.0  T
   6    -32.0768603 -0.167852E-08  0.208E-04    3.64      94.3  T
   7    -32.0768603 -0.790621E-10  0.495E-05    3.64     395.8  T
   8    -32.0768603 -0.321592E-10  0.196E-05    3.64     999.5  T
   9    -32.0768603 -0.473221E-11  0.823E-06    3.64    2383.9  T
  10    -32.0768603 -0.568434E-13  0.233E-06    3.64    8412.5  T
     SCC iter.                  ...        0 min,  0.074 sec
     gradient                   ...        0 min,  0.002 sec
 * total energy  :   -31.5553766 Eh     change       -0.2160144E-04 Eh
   gradient norm :     0.0008419 Eh/α   predicted    -0.7691373E-05 ( -64.39%)
   displ. norm   :     0.1188307 α      lambda       -0.1714590E-04
   maximum displ.:     0.0862528 α      in ANC's #1, #2, #5, ...

........................................................................
.............................. CYCLE   32 ..............................
........................................................................

 iter      E             dE          RMSdq      gap      omega  full diag
   1    -32.0764946 -0.320765E+02  0.537E-02    3.64       0.0  T
   2    -32.0764948 -0.142819E-06  0.315E-02    3.64       1.0  T
   3    -32.0764947  0.130661E-06  0.316E-03    3.64       6.2  T
   4    -32.0764948 -0.168972E-06  0.980E-04    3.64      20.0  T
   5    -32.0764948 -0.114293E-07  0.390E-04    3.64      50.3  T
   6    -32.0764948 -0.105977E-08  0.185E-04    3.64     106.0  T
   7    -32.0764948 -0.655263E-10  0.442E-05    3.64     443.5  T
   8    -32.0764948 -0.303899E-10  0.172E-05    3.64    1142.0  T
   9    -32.0764948 -0.288480E-11  0.697E-06    3.64    2812.3  T
  10    -32.0764948 -0.426326E-13  0.274E-06    3.64    7165.6  T
     SCC iter.                  ...        0 min,  0.074 sec
     gradient                   ...        0 min,  0.002 sec
 * total energy  :   -31.5554003 Eh     change       -0.2367698E-04 Eh
   gradient norm :     0.0004798 Eh/α   predicted    -0.8627909E-05 ( -63.56%)
   displ. norm   :     0.1583304 α      lambda       -0.2133824E-04
   maximum displ.:     0.1126790 α      in ANC's #1, #2, #5, ...

........................................................................
.............................. CYCLE   33 ..............................
........................................................................

 iter      E             dE          RMSdq      gap      omega  full diag
   1    -32.0760950 -0.320761E+02  0.712E-02    3.64       0.0  T
   2    -32.0760952 -0.252099E-06  0.417E-02    3.64       1.0  T
   3    -32.0760950  0.218118E-06  0.419E-03    3.64       4.7  T
   4    -32.0760953 -0.285786E-06  0.129E-03    3.64      15.2  T
   5    -32.0760953 -0.202217E-07  0.524E-04    3.64      37.4  T
   6    -32.0760953 -0.189613E-08  0.246E-04    3.64      79.6  T
   7    -32.0760953 -0.106994E-09  0.560E-05    3.64     350.0  T
   8    -32.0760953 -0.473364E-10  0.225E-05    3.64     871.3  T
   9    -32.0760953 -0.493117E-11  0.939E-06    3.64    2089.3  T
  10    -32.0760953 -0.163425E-12  0.326E-06    3.64    6008.7  T
     SCC iter.                  ...        0 min,  0.079 sec
     gradient                   ...        0 min,  0.002 sec
 * total energy  :   -31.5554283 Eh     change       -0.2800791E-04 Eh
   gradient norm :     0.0008728 Eh/α   predicted    -0.1079238E-04 ( -61.47%)
   displ. norm   :     0.2126866 α      lambda       -0.2406374E-04
   maximum displ.:     0.1507156 α      in ANC's #1, #2, #5, ...

........................................................................
.............................. CYCLE   34 ..............................
........................................................................

 iter      E             dE          RMSdq      gap      omega  full diag
   1    -32.0753246 -0.320753E+02  0.955E-02    3.63       0.0  T
   2    -32.0753251 -0.480857E-06  0.559E-02    3.64       1.0  T
   3    -32.0753248  0.335644E-06  0.560E-03    3.64       3.5  T
   4    -32.0753252 -0.450812E-06  0.175E-03    3.64      11.2  T
   5    -32.0753253 -0.341001E-07  0.717E-04    3.64      27.3  T
   6    -32.0753253 -0.489595E-08  0.337E-04    3.64      58.3  T
   7    -32.0753253 -0.258304E-09  0.767E-05    3.64     255.8  T
   8    -32.0753253 -0.666418E-10  0.306E-05    3.64     641.4  T
   9    -32.0753253 -0.113758E-10  0.118E-05    3.64    1662.4  T
  10    -32.0753253 -0.220268E-12  0.467E-06    3.64    4204.0  T
  11    -32.0753253 -0.568434E-13  0.138E-06    3.64   14218.3  T
     SCC iter.                  ...        0 min,  0.075 sec
     gradient                   ...        0 min,  0.002 sec
 * total energy  :   -31.5554570 Eh     change       -0.2867340E-04 Eh
   gradient norm :     0.0018569 Eh/α   predicted    -0.1227584E-04 ( -57.19%)
   displ. norm   :     0.3448049 α      lambda       -0.3074345E-04
   maximum displ.:     0.2459357 α      in ANC's #1, #2, #5, ...

........................................................................
.............................. CYCLE   35 ..............................
........................................................................

 iter      E             dE          RMSdq      gap      omega  full diag
   1    -32.0741472 -0.320741E+02  0.152E-01    3.63       0.0  T
   2    -32.0741483 -0.109872E-05  0.892E-02    3.63       1.0  T
   3    -32.0741476  0.697965E-06  0.839E-03    3.63       2.3  T
   4    -32.0741487 -0.100153E-05  0.257E-03    3.64       7.6  T
   5    -32.0741487 -0.727389E-07  0.113E-03    3.63      17.3  T
   6    -32.0741487 -0.116486E-07  0.509E-04    3.63      38.5  T
   7    -32.0741487 -0.379636E-09  0.107E-04    3.63     183.7  T
   8    -32.0741487 -0.196678E-09  0.451E-05    3.63     434.7  T
   9    -32.0741487 -0.184599E-10  0.193E-05    3.63    1014.9  T
  10    -32.0741487 -0.667910E-12  0.566E-06    3.63    3465.7  T
  11    -32.0741487 -0.170530E-12  0.154E-06    3.63   12714.2  T
     SCC iter.                  ...        0 min,  0.074 sec
     gradient                   ...        0 min,  0.002 sec
 * total energy  :   -31.5554803 Eh     change       -0.2332340E-04 Eh
   gradient norm :     0.0034070 Eh/α   predicted    -0.1618854E-04 ( -30.59%)
   displ. norm   :     0.0454237 α      lambda       -0.1710581E-04
   maximum displ.:     0.0313312 α      in ANC's #1, #2, #4, ...

........................................................................
.............................. CYCLE   36 ..............................
........................................................................

 iter      E             dE          RMSdq      gap      omega  full diag
   1    -32.0747349 -0.320747E+02  0.188E-02    3.64       0.0  T
   2    -32.0747349 -0.373824E-07  0.110E-02    3.64       1.8  T
   3    -32.0747349  0.171669E-07  0.158E-03    3.64      12.4  T
   4    -32.0747349 -0.245209E-07  0.429E-04    3.64      45.7  T
   5    -32.0747349 -0.610157E-09  0.212E-04    3.64      92.6  T
   6    -32.0747349 -0.538783E-09  0.101E-04    3.64     195.0  T
   7    -32.0747349 -0.379572E-10  0.246E-05    3.64     798.0  T
   8    -32.0747349 -0.276401E-11  0.700E-06    3.64    2800.1  T
   9    -32.0747349 -0.802913E-12  0.259E-06    3.64    7584.4  T
     SCC iter.                  ...        0 min,  0.075 sec
     gradient                   ...        0 min,  0.002 sec
 * total energy  :   -31.5554955 Eh     change       -0.1522878E-04 Eh
   gradient norm :     0.0028405 Eh/α   predicted    -0.8571060E-05 ( -43.72%)
   displ. norm   :     0.2509707 α      lambda       -0.7152329E-04
   maximum displ.:     0.1726804 α      in ANC's #1, #2, #4, ...

........................................................................
.............................. CYCLE   37 ..............................
........................................................................

 iter      E             dE          RMSdq      gap      omega  full diag
   1    -32.0766804 -0.320767E+02  0.101E-01    3.65       0.0  T
   2    -32.0766812 -0.786250E-06  0.593E-02    3.65       1.0  T
   3    -32.0766810  0.244422E-06  0.633E-03    3.65       3.1  T
   4    -32.0766814 -0.405984E-06  0.194E-03    3.65      10.1  T
   5    -32.0766814 -0.242817E-07  0.823E-04    3.65      23.8  T
   6    -32.0766814 -0.811612E-08  0.393E-04    3.65      49.9  T
   7    -32.0766814 -0.456623E-09  0.917E-05    3.65     214.0  T
   8    -32.0766814 -0.687237E-10  0.315E-05    3.65     622.8  T
   9    -32.0766814 -0.151772E-10  0.111E-05    3.65    1766.9  T
  10    -32.0766814 -0.447642E-12  0.511E-06    3.65    3837.7  T
  11    -32.0766814 -0.227374E-12  0.224E-06    3.65    8760.6  T
     SCC iter.                  ...        0 min,  0.074 sec
     gradient                   ...        0 min,  0.002 sec
 * total energy  :   -31.5555448 Eh     change       -0.4927790E-04 Eh
   gradient norm :     0.0015853 Eh/α   predicted    -0.3801546E-04 ( -22.85%)
   displ. norm   :     0.5174669 α      lambda       -0.4250470E-04
   maximum displ.:     0.3607131 α      in ANC's #1, #2, #4, ...

........................................................................
.............................. CYCLE   38 ..............................
........................................................................

 iter      E             dE          RMSdq      gap      omega  full diag
   1    -32.0748150 -0.320748E+02  0.215E-01    3.64       0.0  T
   2    -32.0748178 -0.276834E-05  0.126E-01    3.64       1.0  T
   3    -32.0748174  0.432282E-06  0.112E-02    3.65       1.7  T
   4    -32.0748184 -0.105613E-05  0.349E-03    3.65       5.6  T
   5    -32.0748185 -0.720351E-07  0.163E-03    3.65      12.1  T
   6    -32.0748185 -0.337941E-07  0.755E-04    3.65      26.0  T
   7    -32.0748185 -0.135582E-08  0.139E-04    3.65     141.6  T
   8    -32.0748185 -0.206626E-09  0.653E-05    3.65     300.5  T
   9    -32.0748185 -0.553513E-10  0.244E-05    3.65     803.7  T
  10    -32.0748185 -0.703437E-12  0.794E-06    3.65    2468.4  T
  11    -32.0748185 -0.312639E-12  0.286E-06    3.65    6849.2  T
     SCC iter.                  ...        0 min,  0.075 sec
     gradient                   ...        0 min,  0.002 sec
 * total energy  :   -31.5555785 Eh     change       -0.3370705E-04 Eh
   gradient norm :     0.0031041 Eh/α   predicted    -0.2378222E-04 ( -29.44%)
   displ. norm   :     0.1068838 α      lambda       -0.3977606E-04
   maximum displ.:     0.0600380 α      in ANC's #1, #2, #4, ...

........................................................................
.............................. CYCLE   39 ..............................
........................................................................

 iter      E             dE          RMSdq      gap      omega  full diag
   1    -32.0767454 -0.320767E+02  0.381E-02    3.65       0.0  T
   2    -32.0767455 -0.164730E-06  0.224E-02    3.65       1.0  T
   3    -32.0767454  0.948805E-07  0.268E-03    3.65       7.3  T
   4    -32.0767456 -0.138724E-06  0.685E-04    3.65      28.6  T
   5    -32.0767456 -0.308048E-08  0.292E-04    3.65      67.2  T
   6    -32.0767456 -0.238138E-09  0.146E-04    3.65     134.3  T
   7    -32.0767456 -0.133454E-09  0.590E-05    3.65     332.5  T
   8    -32.0767456 -0.123848E-10  0.113E-05    3.65    1735.1  T
   9    -32.0767456 -0.582645E-12  0.423E-06    3.65    4632.8  T
  10    -32.0767456 -0.348166E-12  0.192E-06    3.65   10197.7  T
     SCC iter.                  ...        0 min,  0.074 sec
     gradient                   ...        0 min,  0.002 sec
 * total energy  :   -31.5555993 Eh     change       -0.2081105E-04 Eh
   gradient norm :     0.0010600 Eh/α   predicted    -0.2011539E-04 (  -3.34%)
   displ. norm   :     0.1961309 α      lambda       -0.1096117E-04
   maximum displ.:     0.1289016 α      in ANC's #1, #2, #4, ...

........................................................................
.............................. CYCLE   40 ..............................
........................................................................

 iter      E             dE          RMSdq      gap      omega  full diag
   1    -32.0762084 -0.320762E+02  0.783E-02    3.65       0.0  T
   2    -32.0762088 -0.343744E-06  0.460E-02    3.65       1.0  T
   3    -32.0762087  0.893179E-07  0.398E-03    3.65       4.9  T
   4    -32.0762089 -0.169300E-06  0.137E-03    3.65      14.4  T
   5    -32.0762089 -0.167801E-07  0.609E-04    3.65      32.2  T
   6    -32.0762089 -0.429731E-08  0.292E-04    3.65      67.1  T
   7    -32.0762089 -0.171397E-09  0.572E-05    3.65     342.7  T
   8    -32.0762089 -0.375522E-10  0.240E-05    3.65     816.8  T
   9    -32.0762089 -0.466827E-11  0.127E-05    3.65    1549.7  T
  10    -32.0762089 -0.291323E-12  0.255E-06    3.65    7676.4  T
  11    -32.0762089 -0.142109E-13  0.967E-07    3.65   20274.7  T
     SCC iter.                  ...        0 min,  0.075 sec
     gradient                   ...        0 min,  0.002 sec
 * total energy  :   -31.5556112 Eh     change       -0.1188101E-04 Eh
   gradient norm :     0.0011864 Eh/α   predicted    -0.5575091E-05 ( -53.08%)
   displ. norm   :     0.2409128 α      lambda       -0.1736650E-04
   maximum displ.:     0.1464313 α      in ANC's #2, #1, #4, ...

........................................................................
.............................. CYCLE   41 ..............................
........................................................................

 iter      E             dE          RMSdq      gap      omega  full diag
   1    -32.0760336 -0.320760E+02  0.933E-02    3.64       0.0  T
   2    -32.0760342 -0.556750E-06  0.547E-02    3.64       1.0  T
   3    -32.0760340  0.148163E-06  0.492E-03    3.64       4.0  T
   4    -32.0760343 -0.257489E-06  0.190E-03    3.64      10.3  T
   5    -32.0760343 -0.378421E-07  0.725E-04    3.64      27.1  T
   6    -32.0760343 -0.504839E-08  0.355E-04    3.64      55.2  T
   7    -32.0760343 -0.293937E-09  0.795E-05    3.64     246.6  T
   8    -32.0760343 -0.666702E-10  0.333E-05    3.64     588.8  T
   9    -32.0760343 -0.139977E-10  0.140E-05    3.64    1399.1  T
  10    -32.0760343 -0.319744E-12  0.479E-06    3.64    4091.9  T
  11    -32.0760343 -0.106581E-12  0.176E-06    3.64   11153.2  T
     SCC iter.                  ...        0 min,  0.074 sec
     gradient                   ...        0 min,  0.002 sec
 * total energy  :   -31.5556271 Eh     change       -0.1586338E-04 Eh
   gradient norm :     0.0018311 Eh/α   predicted    -0.8910900E-05 ( -43.83%)
   displ. norm   :     0.1625365 α      lambda       -0.1664454E-04
   maximum displ.:     0.0866061 α      in ANC's #4, #2, #1, ...

........................................................................
.............................. CYCLE   42 ..............................
........................................................................

 iter      E             dE          RMSdq      gap      omega  full diag
   1    -32.0769023 -0.320769E+02  0.564E-02    3.65       0.0  T
   2    -32.0769025 -0.281572E-06  0.330E-02    3.65       1.0  T
   3    -32.0769024  0.155512E-06  0.370E-03    3.65       5.3  T
   4    -32.0769026 -0.198303E-06  0.159E-03    3.65      12.3  T
   5    -32.0769026 -0.360334E-07  0.425E-04    3.65      46.2  T
   6    -32.0769026 -0.107600E-08  0.217E-04    3.65      90.4  T
   7    -32.0769026 -0.154195E-09  0.671E-05    3.65     292.5  T
   8    -32.0769026 -0.418225E-10  0.221E-05    3.65     886.3  T
   9    -32.0769026 -0.839862E-11  0.866E-06    3.65    2264.2  T
  10    -32.0769026 -0.248690E-12  0.306E-06    3.65    6419.2  T
     SCC iter.                  ...        0 min,  0.074 sec
     gradient                   ...        0 min,  0.002 sec
 * total energy  :   -31.5556373 Eh     change       -0.1022341E-04 Eh
   gradient norm :     0.0020456 Eh/α   predicted    -0.8420308E-05 ( -17.64%)
   displ. norm   :     0.0911508 α      lambda       -0.1031579E-04
   maximum displ.:     0.0594673 α      in ANC's #1, #2, #4, ...
 * RMSD in coord.:     0.6379161 α      energy gain  -0.5704786E-03 Eh

generating ANC from model Hessian ...
Using Lindh-Hessian (1995)
 Shifting diagonal of input Hessian by   9.129014227350594E-003
 Lowest  eigenvalues of input Hessian
    0.000000    0.000000    0.000000    0.000000    0.000000    0.000000
    0.010000    0.010072    0.010606    0.011238    0.012160    0.012429
    0.015018    0.017072    0.018440    0.019336    0.024202    0.024863
 Highest eigenvalues
    1.363135    1.550532    1.576474    1.881364    1.986476    2.004545
 

........................................................................
.............................. CYCLE   43 ..............................
........................................................................

 iter      E             dE          RMSdq      gap      omega  full diag
   1    -32.0765208 -0.320765E+02  0.373E-02    3.65       0.0  T
   2    -32.0765208 -0.888558E-07  0.219E-02    3.65       1.0  T
   3    -32.0765208  0.166089E-07  0.182E-03    3.65      10.8  T
   4    -32.0765209 -0.346544E-07  0.738E-04    3.65      26.6  T
   5    -32.0765209 -0.676518E-08  0.277E-04    3.65      70.9  T
   6    -32.0765209 -0.770527E-09  0.119E-04    3.65     165.5  T
   7    -32.0765209 -0.973444E-11  0.195E-05    3.65    1004.4  T
   8    -32.0765209 -0.724043E-11  0.102E-05    3.65    1914.0  T
   9    -32.0765209 -0.717648E-12  0.252E-06    3.65    7793.9  T
  10    -32.0765209 -0.284217E-13  0.931E-07    3.65   21060.4  T
     SCC iter.                  ...        0 min,  0.074 sec
     gradient                   ...        0 min,  0.002 sec
 * total energy  :   -31.5556444 Eh     change       -0.7128716E-05 Eh
   gradient norm :     0.0011738 Eh/α   predicted     0.0000000E+00 (-100.00%)
   displ. norm   :     0.0239598 α      lambda       -0.1400980E-05
   maximum displ.:     0.0111258 α      in ANC's #6, #4, #9, ...

........................................................................
.............................. CYCLE   44 ..............................
........................................................................

 iter      E             dE          RMSdq      gap      omega  full diag
   1    -32.0769925 -0.320770E+02  0.943E-03    3.65       0.0  T
   2    -32.0769925 -0.140852E-07  0.541E-03    3.65       3.6  T
   3    -32.0769925  0.141998E-07  0.101E-03    3.65      19.4  T
   4    -32.0769925 -0.174951E-07  0.351E-04    3.65      55.8  T
   5    -32.0769925 -0.138932E-08  0.138E-04    3.65     142.6  T
   6    -32.0769925 -0.144198E-09  0.610E-05    3.65     321.4  T
   7    -32.0769925 -0.149356E-10  0.175E-05    3.65    1119.2  T
   8    -32.0769925 -0.316192E-11  0.565E-06    3.65    3472.9  T
   9    -32.0769925 -0.298428E-12  0.222E-06    3.65    8841.7  T
     SCC iter.                  ...        0 min,  0.074 sec
     gradient                   ...        0 min,  0.002 sec
 * total energy  :   -31.5556504 Eh     change       -0.5953462E-05 Eh
   gradient norm :     0.0003290 Eh/α   predicted    -0.3144295E-05 ( -47.19%)
   displ. norm   :     0.0353835 α      lambda       -0.3782575E-05
   maximum displ.:     0.0175253 α      in ANC's #6, #4, #9, ...

........................................................................
.............................. CYCLE   45 ..............................
........................................................................

 iter      E             dE          RMSdq      gap      omega  full diag
   1    -32.0770351 -0.320770E+02  0.975E-03    3.65       0.0  T
   2    -32.0770351 -0.144426E-07  0.567E-03    3.65       3.5  T
   3    -32.0770351  0.495334E-09  0.638E-04    3.65      30.8  T
   4    -32.0770351 -0.235647E-08  0.272E-04    3.65      72.1  T
   5    -32.0770351 -0.786592E-09  0.122E-04    3.65     160.6  T
   6    -32.0770351 -0.183533E-09  0.527E-05    3.65     372.0  T
   7    -32.0770351 -0.998313E-11  0.132E-05    3.65    1484.6  T
   8    -32.0770351 -0.150635E-11  0.446E-06    3.65    4394.2  T
   9    -32.0770351 -0.270006E-12  0.229E-06    3.65    8553.7  T
     SCC iter.                  ...        0 min,  0.073 sec
     gradient                   ...        0 min,  0.002 sec
 * total energy  :   -31.5556544 Eh     change       -0.3995268E-05 Eh
   gradient norm :     0.0005661 Eh/α   predicted    -0.1897234E-05 ( -52.51%)
   displ. norm   :     0.0474978 α      lambda       -0.3272219E-05
   maximum displ.:     0.0235337 α      in ANC's #3, #6, #9, ...

........................................................................
.............................. CYCLE   46 ..............................
........................................................................

 iter      E             dE          RMSdq      gap      omega  full diag
   1    -32.0769067 -0.320769E+02  0.132E-02    3.65       0.0  T
   2    -32.0769068 -0.250226E-07  0.766E-03    3.65       2.6  T
   3    -32.0769067  0.101362E-07  0.113E-03    3.65      17.3  T
   4    -32.0769068 -0.107072E-07  0.509E-04    3.65      38.6  T
   5    -32.0769068 -0.561717E-08  0.118E-04    3.65     166.0  T
   6    -32.0769068 -0.109637E-09  0.605E-05    3.65     323.9  T
   7    -32.0769068 -0.128182E-10  0.229E-05    3.65     854.6  T
   8    -32.0769068 -0.252243E-11  0.901E-06    3.65    2176.4  T
   9    -32.0769068 -0.124345E-11  0.207E-06    3.65    9491.7  T
     SCC iter.                  ...        0 min,  0.074 sec
     gradient                   ...        0 min,  0.002 sec
 * total energy  :   -31.5556573 Eh     change       -0.2889964E-05 Eh
   gradient norm :     0.0004817 Eh/α   predicted    -0.1667898E-05 ( -42.29%)
   displ. norm   :     0.0255525 α      lambda       -0.1463868E-05
   maximum displ.:     0.0169126 α      in ANC's #3, #1, #6, ...

........................................................................
.............................. CYCLE   47 ..............................
........................................................................

 iter      E             dE          RMSdq      gap      omega  full diag
   1    -32.0768680 -0.320769E+02  0.824E-03    3.65       0.0  T
   2    -32.0768680 -0.230827E-07  0.458E-03    3.65       4.3  T
   3    -32.0768680  0.261147E-08  0.986E-04    3.65      19.9  T
   4    -32.0768680 -0.365865E-08  0.463E-04    3.65      42.3  T
   5    -32.0768680 -0.292138E-08  0.984E-05    3.65     199.3  T
   6    -32.0768680 -0.146464E-09  0.410E-05    3.65     478.6  T
   7    -32.0768680 -0.272848E-11  0.169E-05    3.65    1161.1  T
   8    -32.0768680 -0.881073E-12  0.678E-06    3.65    2892.0  T
   9    -32.0768680 -0.774492E-12  0.182E-06    3.65   10795.7  T
[...]
         :: add. restraining           0.000000000000 Eh    ::
         :: total charge               0.000000000000 e     ::
         :::::::::::::::::::::::::::::::::::::::::::::::::::::

           ------------------------------------------------- 
          |                Numerical Hessian                |
           ------------------------------------------------- 
step length          :   0.00500
SCC accuracy         :   0.30000
Hessian scale factor :   1.00000
frozen atoms in %    :   0.00000    0
RMS gradient         :   0.00002
estimated CPU  time      1.12 min
estimated wall time      0.14 min

writing file <hessian>.

 projected vibrational frequencies (cm⁻¹)
eigval :       -0.00    -0.00     0.00     0.00     0.00     0.00
eigval :       25.02    64.59    85.28   113.47   161.56   170.51
eigval :      201.53   222.39   248.16   262.75   314.47   361.37
eigval :      366.33   392.79   473.24   585.84   648.67   659.33
eigval :      679.03   690.40   736.64   760.55   769.45   872.87
eigval :      896.09   925.85   931.64   967.52   982.29   995.11
eigval :     1013.56  1017.27  1063.77  1077.68  1084.86  1115.18
eigval :     1123.37  1181.73  1203.80  1222.73  1230.78  1250.35
eigval :     1268.46  1280.25  1317.24  1407.87  1412.80  1421.39
eigval :     1448.93  1451.32  1461.95  1496.55  1499.48  1505.03
eigval :     1506.50  1578.12  1589.25  2936.16  2941.27  2951.26
eigval :     2955.38  3011.79  3012.28  3023.48  3025.32  3034.21
eigval :     3041.06  3054.56  3067.45  3074.38  3086.72  3093.58
           -------------------------------------------------
          |                Property Printout                |
           -------------------------------------------------

    * Orbital Energies and Occupations

         #    Occupation            Energy/Eh            Energy/eV
      -------------------------------------------------------------
         1        2.0000           -0.6587728             -17.9261
       ...           ...                  ...                  ...
        18        2.0000           -0.4754211             -12.9369
        19        2.0000           -0.4741786             -12.9031
        20        2.0000           -0.4670903             -12.7102
        21        2.0000           -0.4610135             -12.5448
        22        2.0000           -0.4564763             -12.4214
        23        2.0000           -0.4434717             -12.0675
        24        2.0000           -0.4381737             -11.9233
        25        2.0000           -0.4239342             -11.5358
        26        2.0000           -0.4163293             -11.3289
        27        2.0000           -0.4071312             -11.0786
        28        2.0000           -0.4029419             -10.9646
        29        2.0000           -0.3995287             -10.8717
        30        2.0000           -0.3641290              -9.9085 (HOMO)
        31                         -0.2300474              -6.2599 (LUMO)
        32                         -0.2216011              -6.0301
        33                         -0.1545688              -4.2060
        34                         -0.1502568              -4.0887
        35                         -0.0931747              -2.5354
        36                          0.0037149               0.1011
        37                          0.0491646               1.3378
        38                          0.0992613               2.7010
        39                          0.1124083               3.0588
        40                          0.1210880               3.2950
        41                          0.1307067               3.5567
       ...                                ...                  ...
        64                          0.7774050              21.1543
      -------------------------------------------------------------
                  HL-Gap            0.1340817 Eh            3.6485 eV
             Fermi-level           -0.2970882 Eh           -8.0842 eV

     #   Z          covCN         q      C6AA      α(0)
     1  15 P        3.030    -0.114   165.426    23.106
     2   6 C        3.748    -0.045    21.454     6.606
     3   1 H        0.926     0.040     2.447     2.446
     4   1 H        0.925     0.046     2.368     2.407
     5   6 C        3.821    -0.097    22.342     6.726
     6   1 H        0.925     0.041     2.434     2.440
     7   1 H        0.925     0.039     2.464     2.455
     8   1 H        0.925     0.031     2.569     2.507
     9   6 C        2.915     0.012    27.743     8.637
    10   6 C        2.955    -0.033    28.819     8.805
    11   6 C        3.033    -0.030    28.717     8.790
    12   6 C        2.920    -0.032    28.787     8.799
    13   6 C        2.918    -0.030    28.748     8.792
    14   6 C        2.920    -0.031    28.774     8.797
    15   1 H        0.926     0.036     2.506     2.476
    16   1 H        0.925     0.035     2.523     2.484
    17   1 H        0.926     0.027     2.629     2.535
    18   1 H        0.926     0.029     2.606     2.524
    19   1 H        0.926     0.028     2.617     2.530
    20   6 C        3.747    -0.046    21.461     6.608
    21   1 H        0.926     0.040     2.450     2.447
    22   1 H        0.926     0.042     2.421     2.433
    23   6 C        3.780    -0.096    22.347     6.734
    24   1 H        0.925     0.037     2.487     2.466
    25   1 H        0.925     0.038     2.471     2.458
    26   1 H        0.925     0.033     2.540     2.492

 Mol. C6AA /au·bohr⁶  :       7599.445079
 Mol. C8AA /au·bohr⁸  :     202588.419837
 Mol. α(0) /au        :        139.499967


Wiberg/Mayer (AO) data.
largest (>0.10) Wiberg bond orders for each atom

 ---------------------------------------------------------------------------
     #   Z sym  total        # sym  WBO       # sym  WBO       # sym  WBO
 ---------------------------------------------------------------------------
     1  15 P    3.374 --     2 C    1.030     9 C    1.018    20 C    1.012
     2   6 C    3.995 --     1 P    1.030     5 C    1.016     3 H    0.956
                             4 H    0.949
     3   1 H    0.998 --     2 C    0.956
     4   1 H    0.998 --     2 C    0.949
     5   6 C    3.997 --     2 C    1.016     6 H    0.985     8 H    0.985
                             7 H    0.983
     6   1 H    0.998 --     5 C    0.985
     7   1 H    0.998 --     5 C    0.983
     8   1 H    0.999 --     5 C    0.985
     9   6 C    3.982 --    10 C    1.404    11 C    1.390     1 P    1.018
                            14 C    0.106
    10   6 C    3.993 --    12 C    1.439     9 C    1.404    15 H    0.961
                            13 C    0.107
    11   6 C    3.992 --    13 C    1.457     9 C    1.390    16 H    0.962
                            12 C    0.110
    12   6 C    3.993 --    14 C    1.442    10 C    1.439    17 H    0.970
                            11 C    0.110
    13   6 C    3.991 --    11 C    1.457    14 C    1.428    18 H    0.970
                            10 C    0.107
    14   6 C    3.992 --    12 C    1.442    13 C    1.428    19 H    0.971
                             9 C    0.106
    15   1 H    0.999 --    10 C    0.961
    16   1 H    0.999 --    11 C    0.962
    17   1 H    0.999 --    12 C    0.970
    18   1 H    0.999 --    13 C    0.970
    19   1 H    0.998 --    14 C    0.971
    20   6 C    3.994 --     1 P    1.012    23 C    1.012    21 H    0.957
                            22 H    0.956
    21   1 H    0.998 --    20 C    0.957
    22   1 H    0.998 --    20 C    0.956
    23   6 C    3.997 --    20 C    1.012    24 H    0.985    26 H    0.983
                            25 H    0.983
    24   1 H    0.999 --    23 C    0.985
    25   1 H    0.999 --    23 C    0.983
    26   1 H    0.999 --    23 C    0.983
 ---------------------------------------------------------------------------

Topologies differ in total number of bonds
Writing topology from bond orders to xtbtopo.mol

molecular dipole:
                 x           y           z       tot (Debye)
 q only:       -0.126       0.061      -0.286
   full:       -0.432       0.004      -0.491       1.663
molecular quadrupole (traceless):
                xx          xy          yy          xz          yz          zz
 q only:       -2.585      -0.531      -0.107      -0.197      -0.569       2.692
  q+dip:       -3.586      -1.172       0.801      -0.513      -2.901       2.786
   full:       -5.149      -0.839       0.462      -0.105      -1.243       4.687

           -------------------------------------------------
          |                Geometry Summary                 |
           -------------------------------------------------

      molecular mass/u    :      166.2002322
   center of mass at/Å    :        0.1403763      -0.6491453      -2.5101198
  moments of inertia/u·Å² :        0.3628064E+03   0.7184672E+03   0.8753762E+03
rotational constants/cm⁻¹ :        0.4646454E-01   0.2346333E-01   0.1925759E-01

 * 24 selected distances

     #   Z          #   Z                                           value/Å
     1  15 P        2   6 C                                       1.8634129 (max)
     2   6 C        3   1 H                                       1.0942855
     2   6 C        4   1 H                                       1.0920701
     2   6 C        5   6 C                                       1.5243836
     5   6 C        6   1 H                                       1.0880576
     5   6 C        7   1 H                                       1.0884000
     5   6 C        8   1 H                                       1.0892004
     9   6 C       10   6 C                                       1.3889613
     9   6 C       11   6 C                                       1.3938377
    10   6 C       12   6 C                                       1.3847397
    11   6 C       13   6 C                                       1.3808410
    12   6 C       14   6 C                                       1.3835319
    13   6 C       14   6 C                                       1.3857428
    10   6 C       15   1 H                                       1.0792851 (min)
    11   6 C       16   1 H                                       1.0820619
    12   6 C       17   1 H                                       1.0809660
    13   6 C       18   1 H                                       1.0806042
    14   6 C       19   1 H                                       1.0801865
    20   6 C       21   1 H                                       1.0939910
    20   6 C       22   1 H                                       1.0936408
    20   6 C       23   6 C                                       1.5224604
    23   6 C       24   1 H                                       1.0870920
    23   6 C       25   1 H                                       1.0886476
    23   6 C       26   1 H                                       1.0890729

 * 3 distinct bonds (by element types)

   Z      Z             #   av. dist./Å        max./Å        min./Å
   1 H    6 C          15     1.0871708     1.0942855     1.0792851
   6 C    6 C           8     1.4205623     1.5243836     1.3808410
   6 C   15 P           1     1.8634129     1.8634129     1.8634129

           -------------------------------------------------
          |               Frequency Printout                |
           -------------------------------------------------
 projected vibrational frequencies (cm⁻¹)
eigval :       -0.00    -0.00     0.00     0.00     0.00     0.00
eigval :       25.02    64.59    85.28   113.47   161.56   170.51
eigval :      201.53   222.39   248.16   262.75   314.47   361.37
eigval :      366.33   392.79   473.24   585.84   648.67   659.33
eigval :      679.03   690.40   736.64   760.55   769.45   872.87
eigval :      896.09   925.85   931.64   967.52   982.29   995.11
eigval :     1013.56  1017.27  1063.77  1077.68  1084.86  1115.18
eigval :     1123.37  1181.73  1203.80  1222.73  1230.78  1250.35
eigval :     1268.46  1280.25  1317.24  1407.87  1412.80  1421.39
eigval :     1448.93  1451.32  1461.95  1496.55  1499.48  1505.03
eigval :     1506.50  1578.12  1589.25  2936.16  2941.27  2951.26
eigval :     2955.38  3011.79  3012.28  3023.48  3025.32  3034.21
eigval :     3041.06  3054.56  3067.45  3074.38  3086.72  3093.58
 reduced masses (amu)
   1: 11.69   2: 13.22   3: 13.07   4: 14.19   5: 12.79   6: 12.95   7:  9.89   8:  8.79
   9:  8.99  10:  9.80  11:  6.59  12:  7.00  13:  7.21  14:  6.85  15:  6.54  16:  8.75
  17: 13.06  18: 12.85  19: 10.51  20: 18.42  21: 12.84  22: 11.18  23: 13.85  24: 11.32
  25: 14.02  26: 12.65  27:  3.34  28:  6.95  29:  4.74  30:  3.30  31:  3.57  32:  4.14
  33:  2.97  34: 10.39  35:  3.25  36:  3.15  37:  3.63  38:  4.42  39:  9.54  40:  9.07
  41:  8.30  42:  8.50  43:  4.39  44:  1.31  45:  1.90  46:  3.63  47:  3.26  48:  4.24
  49:  4.13  50:  3.44  51: 11.94  52:  2.90  53:  2.94  54:  8.53  55:  2.60  56:  3.98
  57:  5.71  58:  1.53  59:  1.56  60:  1.56  61:  1.54  62: 11.43  63: 11.44  64:  1.93
  65:  1.98  66:  1.52  67:  1.51  68:  1.82  69:  1.87  70:  1.90  71:  1.71  72:  1.43
  73:  1.57  74:  1.80  75:  1.77  76:  1.83  77:  1.88  78:  1.86
 IR intensities (km·mol⁻¹)
   1:  0.06   2:  0.11   3:  0.02   4:  0.02   5:  0.17   6:  0.07   7:  0.08   8:  0.08
   9:  0.15  10:  0.32  11:  0.11  12:  0.22  13:  0.13  14:  0.19  15:  0.12  16:  0.85
  17:  0.22  18:  0.75  19:  0.19  20:  0.74  21:  5.10  22:  0.05  23: 11.43  24:  8.40
  25:  8.28  26: 10.57  27: 19.49  28: 37.59  29: 20.02  30:  0.11  31:  0.08  32:  0.09
  33:  0.00  34:  1.81  35:  5.03  36:  2.68  37:  0.86  38:  4.57  39:  6.12  40:  7.80
  41:  0.25  42:  1.48  43:  0.04  44:  0.02  45:  0.63  46:  2.54  47:  2.56  48:  6.18
  49:  6.64  50:  0.81  51:  0.38  52:  1.69  53:  2.03  54:  0.77  55:  0.53  56:  0.75
  57:  0.12  58:  1.99  59:  1.08  60:  1.28  61:  1.85  62:  0.38  63:  4.13  64:  3.98
  65: 42.32  66: 14.78  67: 21.76  68: 48.96  69: 46.00  70: 23.16  71: 29.99  72: 16.51
  73: 24.25  74: 16.65  75:  8.08  76: 48.62  77: 78.78  78: 22.64
 Raman intensities (Ä⁴*amu⁻¹)
   1:  0.00   2:  0.00   3:  0.00   4:  0.00   5:  0.00   6:  0.00   7:  0.00   8:  0.00
   9:  0.00  10:  0.00  11:  0.00  12:  0.00  13:  0.00  14:  0.00  15:  0.00  16:  0.00
  17:  0.00  18:  0.00  19:  0.00  20:  0.00  21:  0.00  22:  0.00  23:  0.00  24:  0.00
  25:  0.00  26:  0.00  27:  0.00  28:  0.00  29:  0.00  30:  0.00  31:  0.00  32:  0.00
  33:  0.00  34:  0.00  35:  0.00  36:  0.00  37:  0.00  38:  0.00  39:  0.00  40:  0.00
  41:  0.00  42:  0.00  43:  0.00  44:  0.00  45:  0.00  46:  0.00  47:  0.00  48:  0.00
  49:  0.00  50:  0.00  51:  0.00  52:  0.00  53:  0.00  54:  0.00  55:  0.00  56:  0.00
  57:  0.00  58:  0.00  59:  0.00  60:  0.00  61:  0.00  62:  0.00  63:  0.00  64:  0.00
  65:  0.00  66:  0.00  67:  0.00  68:  0.00  69:  0.00  70:  0.00  71:  0.00  72:  0.00
  73:  0.00  74:  0.00  75:  0.00  76:  0.00  77:  0.00  78:  0.00
 output can be read by thermo (or use thermo option).
 writing <g98.out> molden fake output.
 recommended (thermochemical) frequency scaling factor: 1.0
           -------------------------------------------------
          |             Thermodynamic Functions             |
           -------------------------------------------------

Molecule has no symmetry elements
It seems to be the C1 point group
c1  symmetry found (for desy threshold:  0.10E+00) used in thermo

          ...................................................
          :                      SETUP                      :
          :.................................................:
          :  # frequencies                          72      :
          :  # imaginary freq.                       0      :
          :  linear?                             false      :
          :  only rotor calc.                    false      :
          :  symmetry                               c1      :
          :  rotational number                       1      :
          :  scaling factor                  1.0000000      :
          :  rotor cutoff                   50.0000000 cm⁻¹ :
          :  imag. cutoff                  -20.0000000 cm⁻¹ :
          :.................................................:

    mode    ω/cm⁻¹     T·S(HO)/kcal·mol⁻¹    T·S(FR)/kcal·mol⁻¹   T·S(vib)
   ------------------------------------------------------------------------
       1     25.02    -1.84539 (  5.90%)    -1.26133 ( 94.10%)    -1.29580
       2     64.59    -1.28558 ( 73.58%)    -0.98059 ( 26.42%)    -1.20499
       3     85.28    -1.12266 ( 89.43%)    -0.89827 ( 10.57%)    -1.09895
       4    113.47    -0.95667 ( 96.37%)    -0.81371 (  3.63%)    -0.95147
       5    161.56    -0.75476 ( 99.09%)    -0.70906 (  0.91%)    -0.75434
       6    170.51    -0.72446 ( 99.27%)    -0.69308 (  0.73%)    -0.72423
       7    201.53    -0.63180 ( 99.62%)    -0.64357 (  0.38%)    -0.63184
       8    222.39    -0.57827 ( 99.75%)    -0.61440 (  0.25%)    -0.57836
       9    248.16    -0.51985 ( 99.84%)    -0.58192 (  0.16%)    -0.51995
      10    262.75    -0.48998 ( 99.87%)    -0.56500 (  0.13%)    -0.49008
   ------------------------------------------------------------------------

   temp. (K)  partition function   enthalpy   heat capacity  entropy
                                   cal/mol     cal/K/mol   cal/K/mol   J/K/mol
 298.15  VIB  0.143E+05             6119.170     39.485     37.320
         ROT  0.115E+07              888.752      2.981     30.720
         INT  0.164E+11             7007.922     42.466     68.041
         TR   0.207E+28             1481.254      4.968     41.214
         TOT                        8489.1759    47.4340   109.2544   457.1203

       T/K    H(0)-H(T)+PV         H(T)/Eh          T*S/Eh         G(T)/Eh
   ------------------------------------------------------------------------
    298.15    0.135284E-01    0.232469E+00    0.519103E-01    0.180559E+00
   ------------------------------------------------------------------------

         :::::::::::::::::::::::::::::::::::::::::::::::::::::
         ::                  THERMODYNAMIC                  ::
         :::::::::::::::::::::::::::::::::::::::::::::::::::::
         :: total free energy         -31.375108339080 Eh   ::
         ::.................................................::
         :: total energy              -31.555667137093 Eh   ::
         :: zero point energy           0.218940712691 Eh   ::
         :: G(RRHO) w/o ZPVE           -0.038381914679 Eh   ::
         :: G(RRHO) contrib.            0.180558798012 Eh   ::
         :::::::::::::::::::::::::::::::::::::::::::::::::::::

optimized geometry written to: xtbopt.xyz


           -------------------------------------------------
          | TOTAL ENERGY              -31.555667137093 Eh   |
          | TOTAL ENTHALPY            -31.323198061436 Eh   |
          | TOTAL FREE ENERGY         -31.375108339080 Eh   |
          | GRADIENT NORM               0.000020912755 Eh/α |
          | HOMO-LUMO GAP               3.648547454908 eV   |
           -------------------------------------------------

------------------------------------------------------------------------
 * finished run on 2025/07/14 at 11:38:01.213     
------------------------------------------------------------------------
 total:
 * wall-time:     0 d,  0 h,  0 min,  8.888 sec
 *  cpu-time:     0 d,  0 h,  1 min, 31.630 sec
 * ratio c/w:    10.309 speedup
 SCF:
 * wall-time:     0 d,  0 h,  0 min,  0.092 sec
 *  cpu-time:     0 d,  0 h,  0 min,  1.069 sec
 * ratio c/w:    11.641 speedup
 ANC optimizer:
 * wall-time:     0 d,  0 h,  0 min,  5.439 sec
 *  cpu-time:     0 d,  0 h,  1 min,  4.574 sec
 * ratio c/w:    11.871 speedup
 analytical hessian:
 * wall-time:     0 d,  0 h,  0 min,  3.347 sec
 *  cpu-time:     0 d,  0 h,  0 min, 25.885 sec
 * ratio c/w:     7.734 speedup

