      -----------------------------------------------------------      
     |                   =====================                   |     
     |                           x T B                           |     
     |                   =====================                   |     
     |                         S. Grimme                         |     
     |          Mulliken Center for Theoretical Chemistry        |     
     |                    University of Bonn                     |     
      -----------------------------------------------------------      

   * xtb version 6.7.0 (08769fc) compiled by 'albert@albert-system' on 2024-03-04

   xtb is free software: you can redistribute it and/or modify it under
   the terms of the GNU Lesser General Public License as published by
   the Free Software Foundation, either version 3 of the License, or
   (at your option) any later version.
   
   xtb is distributed in the hope that it will be useful,
   but WITHOUT ANY WARRANTY; without even the implied warranty of
   MERCHANTABILITY or FITNESS FOR A PARTICULAR PURPOSE.  See the
   GNU Lesser General Public License for more details.
   
   Cite this work as:
   * C. Bannwarth, E. Caldeweyher, S. Ehlert, A. Hansen, P. Pracht,
     J. Seibert, S. Spicher, S. Grimme, WIREs Comput. Mol. Sci., 2020, 11,
     e01493. DOI: 10.1002/wcms.1493
   
   for GFN2-xTB:
   * C. Bannwarth, S. Ehlert and S. Grimme., J. Chem. Theory Comput., 2019,
     15, 1652-1671. DOI: 10.1021/acs.jctc.8b01176
   for GFN1-xTB:
   * S. Grimme, C. Bannwarth, P. Shushkov, J. Chem. Theory Comput., 2017,
     13, 1989-2009. DOI: 10.1021/acs.jctc.7b00118
   for GFN0-xTB:
   * P. Pracht, E. Caldeweyher, S. Ehlert, S. Grimme, ChemRxiv, 2019, preprint.
     DOI: 10.26434/chemrxiv.8326202.v1
   for GFN-FF:
   * S. Spicher and S. Grimme, Angew. Chem. Int. Ed., 2020, 59, 15665-15673.
     DOI: 10.1002/anie.202004239
   
   for ALPB and GBSA implicit solvation:
   * S. Ehlert, M. Stahn, S. Spicher, S. Grimme, J. Chem. Theory Comput.,
     2021, 17, 4250-4261. DOI: 10.1021/acs.jctc.1c00471
   
   for ddCOSMO and CPCM-X implicit solvation:
   * M. Stahn, S. Ehlert, S. Grimme, J. Phys. Chem. A,
     2023, XX, XXXX-XXXX. DOI: 10.1021/acs.jpca.3c04382
   
   for DFT-D4:
   * E. Caldeweyher, C. Bannwarth and S. Grimme, J. Chem. Phys., 2017,
     147, 034112. DOI: 10.1063/1.4993215
   * E. Caldeweyher, S. Ehlert, A. Hansen, H. Neugebauer, S. Spicher,
     C. Bannwarth and S. Grimme, J. Chem. Phys., 2019, 150, 154122.
     DOI: 10.1063/1.5090222
   * E. Caldeweyher, J.-M. Mewes, S. Ehlert and S. Grimme, Phys. Chem. Chem. Phys.
     2020, 22, 8499-8512. DOI: 10.1039/D0CP00502A
   
   for sTDA-xTB:
   * S. Grimme and C. Bannwarth, J. Chem. Phys., 2016, 145, 054103.
     DOI: 10.1063/1.4959605
   
   in the mass-spec context:
   * V. Asgeirsson, C. Bauer and S. Grimme, Chem. Sci., 2017, 8, 4879.
     DOI: 10.1039/c7sc00601b
   * J. Koopman and S. Grimme, ACS Omega 2019, 4, 12, 15120-15133.
     DOI: 10.1021/acsomega.9b02011
   
   for metadynamics refer to:
   * S. Grimme, J. Chem. Theory Comput., 2019, 155, 2847-2862
     DOI: 10.1021/acs.jctc.9b00143
   
   for SPH calculations refer to:
   * S. Spicher and S. Grimme, J. Chem. Theory Comput., 2021, 17, 1701-1714
     DOI: 10.1021/acs.jctc.0c01306
   
   for ONIOM refer to:
   * C. Plett, A. Katbashev, S. Ehlert, S. Grimme, M. Bursch,
     Phys. Chem. Chem. Phys., 2023, 25, 17860-17868. DOI: 10.1039/D3CP02178E
   
   for DIPRO refer to:
   * J. Kohn, N. Gildemeister, S. Grimme, D. Fazzi, A. Hansen,
     J. Chem. Phys., 2023, just accepted.
   
   for PTB refer to:
   * S. Grimme, M. Mueller, A. Hansen, J. Chem. Phys., 2023, 158, 124111.
     DOI: 10.1063/5.0137838
   
   with help from (in alphabetical order)
   P. Atkinson, C. Bannwarth, F. Bohle, G. Brandenburg, E. Caldeweyher
   M. Checinski, S. Dohm, S. Ehlert, S. Ehrlich, I. Gerasimov, C. Hölzer
   A. Katbashev, J. Kohn, J. Koopman, C. Lavigne, S. Lehtola, F. März, M. Müller,
   F. Musil, H. Neugebauer, J. Pisarek, C. Plett, P. Pracht, F. Pultar,
   J. Seibert, P. Shushkov, S. Spicher, M. Stahn, M. Steiner, T. Strunk,
   J. Stückrath, T. Rose, and J. Unsleber
   
 * started run on 2025/07/14 at 11:26:04.124     
   ID    Z sym.   atoms
    1   15 P      1
    2    6 C      2, 5, 9-14, 20, 23
    3    1 H      3, 4, 6-8, 15-19, 21, 22, 24-26

           -------------------------------------------------
          |                Calculation Setup                |
           -------------------------------------------------

          program call               : /home/minenky/programs/xtb/xtb-dist/bin/xtb m1_00_PEt2Ph-PBE0-D3-TZ-uniMM_1.xyz --charge 0 --T --ohess extreme --cycles 5000 --acc 0.01 --iterations 5000
          coordinate file            : m1_00_PEt2Ph-PBE0-D3-TZ-uniMM_1.xyz
          omp threads                :                    12

########################################################################
[WARNING] Please study the warnings concerning your input carefully
-1- prog_main_parseArguments: Unknown option '--T' provided
########################################################################

           -------------------------------------------------
          |                 G F N 2 - x T B                 |
           -------------------------------------------------

        Reference                      10.1021/acs.jctc.8b01176
      * Hamiltonian:
        H0-scaling (s, p, d)           1.850000    2.230000    2.230000
        zeta-weighting                 0.500000
      * Dispersion:
        s8                             2.700000
        a1                             0.520000
        a2                             5.000000
        s9                             5.000000
      * Repulsion:
        kExp                           1.500000    1.000000
        rExp                           1.000000
      * Coulomb:
        alpha                          2.000000
        third order                    shell-resolved
        anisotropic                    true
        a3                             3.000000
        a5                             4.000000
        cn-shift                       1.200000
        cn-exp                         4.000000
        max-rad                        5.000000


          ...................................................
          :                      SETUP                      :
          :.................................................:
          :  # basis functions                  65          :
          :  # atomic orbitals                  64          :
          :  # shells                           38          :
          :  # electrons                        60          :
          :  max. iterations                  5000          :
          :  Hamiltonian                  GFN2-xTB          :
          :  restarted?                      false          :
          :  GBSA solvation                  false          :
          :  PC potential                    false          :
          :  electronic temp.          300.0000000     K    :
          :  accuracy                    0.0100000          :
          :  -> integral cutoff          0.4500000E+02      :
          :  -> integral neglect         0.1000000E-09      :
          :  -> SCF convergence          0.1000000E-07 Eh   :
          :  -> wf. convergence          0.1000000E-05 e    :
          :  Broyden damping             0.4000000          :
          :  net charge                          0          :
          :  unpaired electrons                  0          :
          ...................................................

 iter      E             dE          RMSdq      gap      omega  full diag
   1    -32.0198680 -0.320199E+02  0.392E+00    4.07       0.0  T
   2    -32.0655530 -0.456850E-01  0.238E+00    3.64       1.0  T
   3    -32.0650592  0.493815E-03  0.889E-01    3.39       1.0  T
   4    -32.0663637 -0.130457E-02  0.278E-01    3.43       1.0  T
   5    -32.0675710 -0.120731E-02  0.132E-01    3.47       1.0  T
   6    -32.0677907 -0.219640E-03  0.433E-02    3.46       1.0  T
   7    -32.0678025 -0.118330E-04  0.166E-02    3.46       1.2  T
   8    -32.0678033 -0.777292E-06  0.754E-03    3.46       2.6  T
   9    -32.0678038 -0.557758E-06  0.163E-03    3.46      12.0  T
  10    -32.0678039 -0.378480E-07  0.579E-04    3.46      33.8  T
  11    -32.0678039 -0.416108E-09  0.293E-04    3.46      67.0  T
  12    -32.0678039 -0.465818E-09  0.456E-05    3.46     429.6  T
  13    -32.0678039 -0.830624E-11  0.211E-05    3.46     927.4  T
  14    -32.0678039 -0.259348E-11  0.741E-06    3.46    2646.4  T
  15    -32.0678039 -0.213163E-13  0.307E-06    3.46    6380.8  T

   *** convergence criteria satisfied after 15 iterations ***

         #    Occupation            Energy/Eh            Energy/eV
      -------------------------------------------------------------
         1        2.0000           -0.6594153             -17.9436
       ...           ...                  ...                  ...
        24        2.0000           -0.4378550             -11.9146
        25        2.0000           -0.4255479             -11.5797
        26        2.0000           -0.4192833             -11.4093
        27        2.0000           -0.4067629             -11.0686
        28        2.0000           -0.4017789             -10.9330
        29        2.0000           -0.3985832             -10.8460
        30        2.0000           -0.3579548              -9.7404 (HOMO)
        31                         -0.2307512              -6.2791 (LUMO)
        32                         -0.2219906              -6.0407
        33                         -0.1480965              -4.0299
        34                         -0.1384835              -3.7683
        35                         -0.0915750              -2.4919
       ...                                ...                  ...
        64                          0.8035581              21.8659
      -------------------------------------------------------------
                  HL-Gap            0.1272037 Eh            3.4614 eV
             Fermi-level           -0.2943530 Eh           -8.0098 eV

 SCC (total)                   0 d,  0 h,  0 min,  0.086 sec
 SCC setup                      ...        0 min,  0.000 sec (  0.145%)
 Dispersion                     ...        0 min,  0.000 sec (  0.145%)
 classical contributions        ...        0 min,  0.000 sec (  0.012%)
 integral evaluation            ...        0 min,  0.002 sec (  2.378%)
 iterations                     ...        0 min,  0.082 sec ( 94.963%)
 molecular gradient             ...        0 min,  0.002 sec (  2.234%)
 printout                       ...        0 min,  0.000 sec (  0.103%)

         :::::::::::::::::::::::::::::::::::::::::::::::::::::
         ::                     SUMMARY                     ::
         :::::::::::::::::::::::::::::::::::::::::::::::::::::
         :: total energy             -31.553038705112 Eh    ::
         :: gradient norm              0.035155741217 Eh/a0 ::
         :: HOMO-LUMO gap              3.461388568125 eV    ::
         ::.................................................::
         :: SCC energy               -32.067575422450 Eh    ::
         :: -> isotropic ES            0.004040532107 Eh    ::
         :: -> anisotropic ES          0.005977342304 Eh    ::
         :: -> anisotropic XC          0.021878418835 Eh    ::
         :: -> dispersion             -0.023712686035 Eh    ::
         :: repulsion energy           0.514536717338 Eh    ::
         :: add. restraining           0.000000000000 Eh    ::
         :: total charge               0.000000000000 e     ::
         :::::::::::::::::::::::::::::::::::::::::::::::::::::

      ----------------------------------------------------------- 
     |                   =====================                   |
     |                        A N C O P T                        |
     |                   =====================                   |
     |               Approximate Normal Coordinate               |
     |                Rational Function Optimizer                |
      ----------------------------------------------------------- 
      ----------------------------------------------------------- 
     |                   =====================                   |
     |                        A N C O P T                        |
     |                   =====================                   |
     |               Approximate Normal Coordinate               |
     |                Rational Function Optimizer                |
      ----------------------------------------------------------- 

          ...................................................
          :                      SETUP                      :
          :.................................................:
          :   optimization level           extreme          :
          :   max. optcycles                  5000          :
          :   ANC micro-cycles                  20          :
          :   degrees of freedom                72          :
          :.................................................:
          :   RF solver                   davidson          :
          :   write xtbopt.log                true          :
          :   linear?                        false          :
          :   energy convergence         0.5000000E-07 Eh   :
          :   grad. convergence          0.5000000E-04 Eh/α :
          :   maxmium RF displ.          1.0000000          :
          :   Hlow (freq-cutoff)         0.1000000E-01      :
          :   Hmax (freq-cutoff)         5.0000000          :
          :   S6 in model hess.         20.0000000          :
          ...................................................

generating ANC from model Hessian ...
Using Lindh-Hessian (1995)
 Shifting diagonal of input Hessian by   9.118277786815062E-003
 Lowest  eigenvalues of input Hessian
    0.000000    0.000000    0.000000    0.000000    0.000000    0.000000
    0.010000    0.010099    0.010750    0.011413    0.011770    0.012491
    0.015323    0.017296    0.018776    0.018888    0.022960    0.023897
 Highest eigenvalues
    1.346725    1.534857    1.561660    1.863927    1.965631    1.985598
 

........................................................................
.............................. CYCLE    1 ..............................
........................................................................

 iter      E             dE          RMSdq      gap      omega  full diag
   1    -32.0678039 -0.320678E+02  0.124E-06    3.46       0.0  T
   2    -32.0678039 -0.568434E-13  0.570E-07    3.46   34390.6  T
   3    -32.0678039  0.213163E-13  0.416E-07    3.46   47113.8  T
     SCC iter.                  ...        0 min,  0.072 sec
     gradient                   ...        0 min,  0.002 sec
 * total energy  :   -31.5530387 Eh     change       -0.2202682E-12 Eh
   gradient norm :     0.0351557 Eh/α   predicted     0.0000000E+00 (-100.00%)
   displ. norm   :     0.3204804 α      lambda       -0.5289542E-02
   maximum displ.:     0.2442348 α      in ANC's #8, #13, #7, ...

........................................................................
.............................. CYCLE    2 ..............................
........................................................................

 iter      E             dE          RMSdq      gap      omega  full diag
   1    -32.0726351 -0.320726E+02  0.341E-01    3.67       0.0  T
   2    -32.0727902 -0.155088E-03  0.167E-01    3.69       1.0  T
   3    -32.0728062 -0.159625E-04  0.561E-02    3.71       1.0  T
   4    -32.0728049  0.126284E-05  0.257E-02    3.71       1.0  T
   5    -32.0728083 -0.338222E-05  0.613E-03    3.71       3.2  T
   6    -32.0728088 -0.548096E-06  0.262E-03    3.71       7.5  T
   7    -32.0728089 -0.595613E-07  0.109E-03    3.71      18.0  T
   8    -32.0728089 -0.212322E-08  0.444E-04    3.71      44.1  T
   9    -32.0728089 -0.222414E-08  0.141E-04    3.71     138.7  T
  10    -32.0728089 -0.168271E-09  0.347E-05    3.71     565.9  T
  11    -32.0728089 -0.392930E-11  0.142E-05    3.71    1384.5  T
  12    -32.0728089 -0.264322E-11  0.439E-06    3.71    4466.3  T
  13    -32.0728089 -0.497380E-13  0.170E-06    3.71   11506.2  T
     SCC iter.                  ...        0 min,  0.075 sec
     gradient                   ...        0 min,  0.002 sec
 * total energy  :   -31.5556889 Eh     change       -0.2650244E-02 Eh
   gradient norm :     0.0105859 Eh/α   predicted    -0.2916506E-02 (  10.05%)
   displ. norm   :     0.1322719 α      lambda       -0.5864640E-03
   maximum displ.:     0.0779665 α      in ANC's #8, #11, #7, ...

........................................................................
.............................. CYCLE    3 ..............................
........................................................................

 iter      E             dE          RMSdq      gap      omega  full diag
   1    -32.0760670 -0.320761E+02  0.935E-02    3.69       0.0  T
   2    -32.0760711 -0.411359E-05  0.517E-02    3.67       1.0  T
   3    -32.0760712 -0.791725E-07  0.108E-02    3.67       1.8  T
   4    -32.0760714 -0.253451E-06  0.529E-03    3.67       3.7  T
   5    -32.0760717 -0.218620E-06  0.133E-03    3.67      14.7  T
   6    -32.0760717 -0.178275E-07  0.901E-04    3.67      21.8  T
   7    -32.0760717 -0.176936E-08  0.258E-04    3.67      76.2  T
   8    -32.0760717 -0.510724E-09  0.972E-05    3.67     201.8  T
   9    -32.0760717 -0.110468E-09  0.280E-05    3.67     701.5  T
  10    -32.0760717 -0.522959E-11  0.104E-05    3.67    1885.1  T
  11    -32.0760717 -0.362377E-12  0.462E-06    3.67    4241.2  T
  12    -32.0760717 -0.113687E-12  0.968E-07    3.67   20266.0  T
     SCC iter.                  ...        0 min,  0.075 sec
     gradient                   ...        0 min,  0.002 sec
 * total energy  :   -31.5560648 Eh     change       -0.3758256E-03 Eh
   gradient norm :     0.0042840 Eh/α   predicted    -0.2985188E-03 ( -20.57%)
   displ. norm   :     0.1214185 α      lambda       -0.1816271E-03
   maximum displ.:     0.0516695 α      in ANC's #7, #1, #2, ...

........................................................................
.............................. CYCLE    4 ..............................
........................................................................

 iter      E             dE          RMSdq      gap      omega  full diag
   1    -32.0771598 -0.320772E+02  0.567E-02    3.67       0.0  T
   2    -32.0771604 -0.630017E-06  0.311E-02    3.67       1.0  T
   3    -32.0771603  0.631014E-07  0.591E-03    3.67       3.3  T
   4    -32.0771605 -0.141092E-06  0.184E-03    3.67      10.6  T
   5    -32.0771605 -0.434657E-07  0.102E-03    3.67      19.2  T
   6    -32.0771605 -0.642886E-08  0.422E-04    3.67      46.5  T
   7    -32.0771605  0.151104E-09  0.145E-04    3.67     135.2  T
   8    -32.0771605 -0.186184E-09  0.378E-05    3.67     518.6  T
   9    -32.0771605 -0.231282E-10  0.145E-05    3.67    1356.5  T
  10    -32.0771605 -0.518696E-12  0.522E-06    3.67    3757.1  T
  11    -32.0771605 -0.163425E-12  0.236E-06    3.67    8304.4  T
     SCC iter.                  ...        0 min,  0.074 sec
     gradient                   ...        0 min,  0.002 sec
 * total energy  :   -31.5561790 Eh     change       -0.1142069E-03 Eh
   gradient norm :     0.0019275 Eh/α   predicted    -0.9221174E-04 ( -19.26%)
   displ. norm   :     0.1483846 α      lambda       -0.6128816E-04
   maximum displ.:     0.0803204 α      in ANC's #1, #2, #4, ...

........................................................................
.............................. CYCLE    5 ..............................
........................................................................

 iter      E             dE          RMSdq      gap      omega  full diag
   1    -32.0771906 -0.320772E+02  0.504E-02    3.67       0.0  T
   2    -32.0771908 -0.148303E-06  0.299E-02    3.67       1.0  T
   3    -32.0771908  0.131836E-07  0.273E-03    3.67       7.2  T
   4    -32.0771908 -0.587488E-07  0.856E-04    3.67      22.9  T
   5    -32.0771908 -0.821146E-09  0.470E-04    3.67      41.7  T
   6    -32.0771908 -0.197169E-08  0.181E-04    3.67     108.1  T
   7    -32.0771908 -0.384048E-10  0.475E-05    3.67     412.7  T
   8    -32.0771908 -0.158664E-10  0.191E-05    3.67    1025.4  T
   9    -32.0771908 -0.441958E-11  0.102E-05    3.67    1918.4  T
  10    -32.0771908 -0.703437E-12  0.281E-06    3.67    6983.4  T
  11    -32.0771908 -0.213163E-13  0.140E-06    3.67   14001.4  T
     SCC iter.                  ...        0 min,  0.074 sec
     gradient                   ...        0 min,  0.002 sec
 * total energy  :   -31.5562419 Eh     change       -0.6295778E-04 Eh
   gradient norm :     0.0020791 Eh/α   predicted    -0.3097071E-04 ( -50.81%)
   displ. norm   :     0.1091316 α      lambda       -0.5419812E-04
   maximum displ.:     0.0656185 α      in ANC's #1, #4, #5, ...

........................................................................
.............................. CYCLE    6 ..............................
........................................................................

 iter      E             dE          RMSdq      gap      omega  full diag
   1    -32.0769303 -0.320769E+02  0.349E-02    3.68       0.0  T
   2    -32.0769305 -0.159223E-06  0.208E-02    3.68       1.0  T
   3    -32.0769305  0.249487E-07  0.234E-03    3.68       8.4  T
   4    -32.0769305 -0.496417E-07  0.806E-04    3.68      24.3  T
   5    -32.0769305 -0.403286E-08  0.501E-04    3.68      39.2  T
   6    -32.0769305 -0.259043E-08  0.207E-04    3.68      94.8  T
   7    -32.0769305  0.144738E-10  0.475E-05    3.68     412.8  T
   8    -32.0769305 -0.459437E-10  0.113E-05    3.68    1732.4  T
   9    -32.0769305 -0.554223E-12  0.432E-06    3.68    4536.8  T
  10    -32.0769305 -0.135003E-12  0.176E-06    3.68   11146.4  T
     SCC iter.                  ...        0 min,  0.073 sec
     gradient                   ...        0 min,  0.002 sec
 * total energy  :   -31.5562880 Eh     change       -0.4605248E-04 Eh
   gradient norm :     0.0014842 Eh/α   predicted    -0.2742205E-04 ( -40.45%)
   displ. norm   :     0.2746709 α      lambda       -0.7353089E-04
   maximum displ.:     0.1674196 α      in ANC's #1, #5, #4, ...

........................................................................
.............................. CYCLE    7 ..............................
........................................................................

 iter      E             dE          RMSdq      gap      omega  full diag
   1    -32.0759597 -0.320760E+02  0.910E-02    3.69       0.0  T
   2    -32.0759610 -0.123646E-05  0.535E-02    3.69       1.0  T
   3    -32.0759608  0.195927E-06  0.641E-03    3.69       3.1  T
   4    -32.0759611 -0.312657E-06  0.249E-03    3.69       7.9  T
   5    -32.0759612 -0.789782E-07  0.133E-03    3.69      14.8  T
   6    -32.0759612 -0.216389E-07  0.533E-04    3.69      36.8  T
   7    -32.0759612  0.783729E-11  0.128E-04    3.69     153.4  T
   8    -32.0759612 -0.263917E-09  0.329E-05    3.69     595.4  T
   9    -32.0759612 -0.697042E-11  0.120E-05    3.69    1628.9  T
  10    -32.0759612 -0.111555E-11  0.491E-06    3.69    3990.8  T
  11    -32.0759612 -0.191847E-12  0.166E-06    3.69   11813.7  T
     SCC iter.                  ...        0 min,  0.074 sec
     gradient                   ...        0 min,  0.002 sec
 * total energy  :   -31.5563566 Eh     change       -0.6860401E-04 Eh
   gradient norm :     0.0023794 Eh/α   predicted    -0.3799846E-04 ( -44.61%)
   displ. norm   :     0.0765017 α      lambda       -0.2577386E-04
   maximum displ.:     0.0559312 α      in ANC's #1, #5, #4, ...

........................................................................
.............................. CYCLE    8 ..............................
........................................................................

 iter      E             dE          RMSdq      gap      omega  full diag
   1    -32.0764288 -0.320764E+02  0.291E-02    3.69       0.0  T
   2    -32.0764289 -0.893157E-07  0.167E-02    3.69       1.2  T
   3    -32.0764289  0.149708E-07  0.194E-03    3.69      10.1  T
   4    -32.0764289 -0.171263E-07  0.925E-04    3.69      21.2  T
   5    -32.0764289 -0.165808E-07  0.202E-04    3.69      97.1  T
   6    -32.0764289 -0.124189E-09  0.104E-04    3.69     189.0  T
   7    -32.0764289 -0.400604E-10  0.307E-05    3.69     638.6  T
   8    -32.0764289 -0.976286E-11  0.933E-06    3.69    2102.4  T
   9    -32.0764289 -0.596856E-12  0.314E-06    3.69    6251.2  T
     SCC iter.                  ...        0 min,  0.073 sec
     gradient                   ...        0 min,  0.002 sec
 * total energy  :   -31.5563792 Eh     change       -0.2256006E-04 Eh
   gradient norm :     0.0016758 Eh/α   predicted    -0.1297205E-04 ( -42.50%)
   displ. norm   :     0.1367869 α      lambda       -0.3471859E-04
   maximum displ.:     0.1047834 α      in ANC's #1, #5, #7, ...

........................................................................
.............................. CYCLE    9 ..............................
........................................................................

 iter      E             dE          RMSdq      gap      omega  full diag
   1    -32.0774631 -0.320775E+02  0.556E-02    3.69       0.0  T
   2    -32.0774634 -0.338506E-06  0.322E-02    3.69       1.0  T
   3    -32.0774634  0.864245E-08  0.340E-03    3.69       5.8  T
   4    -32.0774635 -0.641904E-07  0.112E-03    3.69      17.5  T
   5    -32.0774635 -0.815108E-08  0.366E-04    3.69      53.5  T
   6    -32.0774635 -0.171602E-08  0.225E-04    3.69      87.3  T
   7    -32.0774635 -0.306386E-09  0.672E-05    3.69     291.8  T
   8    -32.0774635 -0.257856E-10  0.172E-05    3.69    1140.8  T
   9    -32.0774635 -0.306244E-11  0.801E-06    3.69    2449.1  T
  10    -32.0774635 -0.582645E-12  0.275E-06    3.69    7143.6  T
     SCC iter.                  ...        0 min,  0.074 sec
     gradient                   ...        0 min,  0.005 sec
 * total energy  :   -31.5564154 Eh     change       -0.3624948E-04 Eh
   gradient norm :     0.0008339 Eh/α   predicted    -0.1750431E-04 ( -51.71%)
   displ. norm   :     0.0928359 α      lambda       -0.1454311E-04
   maximum displ.:     0.0771904 α      in ANC's #1, #5, #3, ...

........................................................................
.............................. CYCLE   10 ..............................
........................................................................

 iter      E             dE          RMSdq      gap      omega  full diag
   1    -32.0773010 -0.320773E+02  0.378E-02    3.69       0.0  T
   2    -32.0773011 -0.111043E-06  0.220E-02    3.69       1.0  T
   3    -32.0773011  0.802483E-08  0.172E-03    3.69      11.4  T
   4    -32.0773011 -0.213881E-07  0.799E-04    3.69      24.6  T
   5    -32.0773011 -0.108935E-07  0.331E-04    3.69      59.3  T
   6    -32.0773011 -0.900208E-09  0.125E-04    3.69     156.7  T
   7    -32.0773011 -0.277112E-12  0.294E-05    3.69     667.3  T
   8    -32.0773011 -0.114753E-10  0.105E-05    3.69    1872.3  T
   9    -32.0773011 -0.144240E-11  0.419E-06    3.69    4681.2  T
  10    -32.0773011 -0.426326E-13  0.141E-06    3.69   13879.8  T
     SCC iter.                  ...        0 min,  0.073 sec
     gradient                   ...        0 min,  0.002 sec
 * total energy  :   -31.5564343 Eh     change       -0.1885162E-04 Eh
   gradient norm :     0.0010865 Eh/α   predicted    -0.7303460E-05 ( -61.26%)
   displ. norm   :     0.0758313 α      lambda       -0.1419285E-04
   maximum displ.:     0.0626256 α      in ANC's #1, #2, #9, ...

........................................................................
.............................. CYCLE   11 ..............................
........................................................................

 iter      E             dE          RMSdq      gap      omega  full diag
   1    -32.0774248 -0.320774E+02  0.328E-02    3.69       0.0  T
   2    -32.0774248 -0.461723E-07  0.192E-02    3.69       1.0  T
   3    -32.0774248  0.561955E-07  0.188E-03    3.69      10.5  T
   4    -32.0774248 -0.744642E-07  0.527E-04    3.69      37.2  T
   5    -32.0774248 -0.234859E-08  0.228E-04    3.69      86.2  T
   6    -32.0774248 -0.101977E-09  0.980E-05    3.69     200.1  T
   7    -32.0774248 -0.305391E-10  0.194E-05    3.69    1008.9  T
   8    -32.0774248 -0.470379E-11  0.707E-06    3.69    2773.3  T
   9    -32.0774248 -0.540012E-12  0.271E-06    3.69    7224.6  T
     SCC iter.                  ...        0 min,  0.072 sec
     gradient                   ...        0 min,  0.002 sec
 * total energy  :   -31.5564538 Eh     change       -0.1957289E-04 Eh
   gradient norm :     0.0009295 Eh/α   predicted    -0.7116226E-05 ( -63.64%)
   displ. norm   :     0.1084697 α      lambda       -0.2006722E-04
   maximum displ.:     0.0851128 α      in ANC's #1, #2, #9, ...

........................................................................
.............................. CYCLE   12 ..............................
........................................................................

 iter      E             dE          RMSdq      gap      omega  full diag
   1    -32.0771816 -0.320772E+02  0.486E-02    3.68       0.0  T
   2    -32.0771816 -0.872780E-07  0.285E-02    3.68       1.0  T
   3    -32.0771816  0.861393E-07  0.264E-03    3.68       7.4  T
   4    -32.0771817 -0.122245E-06  0.739E-04    3.68      26.5  T
   5    -32.0771817 -0.171878E-08  0.332E-04    3.68      59.0  T
   6    -32.0771817 -0.521403E-09  0.153E-04    3.68     128.5  T
   7    -32.0771817 -0.658531E-10  0.305E-05    3.68     642.4  T
   8    -32.0771817 -0.140332E-10  0.134E-05    3.68    1460.8  T
   9    -32.0771817 -0.102318E-11  0.399E-06    3.68    4918.1  T
  10    -32.0771817 -0.497380E-13  0.180E-06    3.68   10922.6  T
     SCC iter.                  ...        0 min,  0.073 sec
     gradient                   ...        0 min,  0.002 sec
 * total energy  :   -31.5564805 Eh     change       -0.2671757E-04 Eh
   gradient norm :     0.0006143 Eh/α   predicted    -0.1008768E-04 ( -62.24%)
   displ. norm   :     0.1334923 α      lambda       -0.2133649E-04
   maximum displ.:     0.1057308 α      in ANC's #1, #2, #9, ...

........................................................................
.............................. CYCLE   13 ..............................
........................................................................

 iter      E             dE          RMSdq      gap      omega  full diag
   1    -32.0770037 -0.320770E+02  0.609E-02    3.68       0.0  T
   2    -32.0770038 -0.131949E-06  0.357E-02    3.68       1.0  T
   3    -32.0770038  0.724226E-07  0.268E-03    3.68       7.3  T
   4    -32.0770039 -0.120011E-06  0.100E-03    3.68      19.6  T
   5    -32.0770039 -0.755784E-08  0.364E-04    3.68      53.8  T
   6    -32.0770039 -0.160242E-09  0.195E-04    3.68     100.5  T
   7    -32.0770039 -0.127336E-09  0.378E-05    3.68     519.5  T
   8    -32.0770039 -0.250324E-10  0.153E-05    3.68    1280.9  T
   9    -32.0770039 -0.216005E-11  0.537E-06    3.68    3654.1  T
  10    -32.0770039 -0.142109E-13  0.185E-06    3.68   10604.4  T
     SCC iter.                  ...        0 min,  0.073 sec
     gradient                   ...        0 min,  0.002 sec
 * total energy  :   -31.5565084 Eh     change       -0.2781066E-04 Eh
   gradient norm :     0.0006197 Eh/α   predicted    -0.1075364E-04 ( -61.33%)
   displ. norm   :     0.1294961 α      lambda       -0.1789395E-04
   maximum displ.:     0.1041458 α      in ANC's #1, #2, #9, ...

........................................................................
.............................. CYCLE   14 ..............................
........................................................................

 iter      E             dE          RMSdq      gap      omega  full diag
   1    -32.0769959 -0.320770E+02  0.595E-02    3.68       0.0  T
   2    -32.0769960 -0.107024E-06  0.348E-02    3.68       1.0  T
   3    -32.0769960  0.619595E-07  0.252E-03    3.68       7.8  T
   4    -32.0769961 -0.105817E-06  0.909E-04    3.68      21.6  T
   5    -32.0769961 -0.346343E-08  0.361E-04    3.68      54.4  T
   6    -32.0769961 -0.374648E-09  0.165E-04    3.68     118.5  T
   7    -32.0769961 -0.928466E-10  0.352E-05    3.68     557.0  T
   8    -32.0769961 -0.226308E-10  0.140E-05    3.68    1397.9  T
   9    -32.0769961 -0.116529E-11  0.466E-06    3.68    4204.3  T
  10    -32.0769961 -0.497380E-13  0.189E-06    3.68   10371.1  T
     SCC iter.                  ...        0 min,  0.072 sec
     gradient                   ...        0 min,  0.002 sec
 * total energy  :   -31.5565328 Eh     change       -0.2439322E-04 Eh
   gradient norm :     0.0007199 Eh/α   predicted    -0.9014535E-05 ( -63.04%)
   displ. norm   :     0.1298211 α      lambda       -0.1797996E-04
   maximum displ.:     0.1050298 α      in ANC's #1, #2, #5, ...

........................................................................
.............................. CYCLE   15 ..............................
........................................................................

 iter      E             dE          RMSdq      gap      omega  full diag
   1    -32.0770306 -0.320770E+02  0.587E-02    3.68       0.0  T
   2    -32.0770307 -0.135082E-06  0.343E-02    3.68       1.0  T
   3    -32.0770307  0.154034E-07  0.212E-03    3.68       9.3  T
   4    -32.0770308 -0.450928E-07  0.107E-03    3.68      18.3  T
   5    -32.0770308 -0.145931E-07  0.354E-04    3.68      55.3  T
   6    -32.0770308 -0.548098E-09  0.177E-04    3.68     110.7  T
   7    -32.0770308 -0.681482E-10  0.404E-05    3.68     485.5  T
   8    -32.0770308 -0.308020E-10  0.138E-05    3.68    1419.5  T
   9    -32.0770308 -0.146372E-11  0.502E-06    3.68    3905.0  T
  10    -32.0770308 -0.355271E-13  0.199E-06    3.68    9853.0  T
     SCC iter.                  ...        0 min,  0.074 sec
     gradient                   ...        0 min,  0.002 sec
 * total energy  :   -31.5565582 Eh     change       -0.2548545E-04 Eh
   gradient norm :     0.0007383 Eh/α   predicted    -0.9058000E-05 ( -64.46%)
   displ. norm   :     0.1512610 α      lambda       -0.2218535E-04
   maximum displ.:     0.1209414 α      in ANC's #1, #2, #5, ...

........................................................................
.............................. CYCLE   16 ..............................
........................................................................

 iter      E             dE          RMSdq      gap      omega  full diag
   1    -32.0770797 -0.320771E+02  0.662E-02    3.67       0.0  T
   2    -32.0770799 -0.173537E-06  0.386E-02    3.67       1.0  T
   3    -32.0770799  0.164274E-07  0.249E-03    3.67       7.9  T
   4    -32.0770799 -0.525660E-07  0.122E-03    3.67      16.0  T
   5    -32.0770800 -0.179764E-07  0.415E-04    3.67      47.2  T
   6    -32.0770800 -0.101337E-08  0.213E-04    3.67      91.9  T
   7    -32.0770800 -0.959020E-10  0.413E-05    3.67     475.4  T
   8    -32.0770800 -0.361027E-10  0.145E-05    3.67    1352.1  T
   9    -32.0770800 -0.154188E-11  0.558E-06    3.67    3511.8  T
  10    -32.0770800 -0.497380E-13  0.182E-06    3.67   10755.5  T
     SCC iter.                  ...        0 min,  0.073 sec
     gradient                   ...        0 min,  0.002 sec
 * total energy  :   -31.5565900 Eh     change       -0.3173467E-04 Eh
   gradient norm :     0.0007754 Eh/α   predicted    -0.1120675E-04 ( -64.69%)
   displ. norm   :     0.2105387 α      lambda       -0.3113332E-04
   maximum displ.:     0.1661200 α      in ANC's #1, #2, #5, ...

........................................................................
.............................. CYCLE   17 ..............................
........................................................................

 iter      E             dE          RMSdq      gap      omega  full diag
   1    -32.0770326 -0.320770E+02  0.903E-02    3.67       0.0  T
   2    -32.0770330 -0.376924E-06  0.526E-02    3.67       1.0  T
   3    -32.0770330  0.125124E-07  0.351E-03    3.67       5.6  T
   4    -32.0770331 -0.899872E-07  0.156E-03    3.67      12.6  T
   5    -32.0770331 -0.228898E-07  0.648E-04    3.67      30.3  T
   6    -32.0770331 -0.382418E-08  0.307E-04    3.67      64.0  T
   7    -32.0770331 -0.201055E-09  0.584E-05    3.67     335.7  T
   8    -32.0770331 -0.504130E-10  0.214E-05    3.67     916.8  T
   9    -32.0770331 -0.402167E-11  0.898E-06    3.67    2183.7  T
  10    -32.0770331 -0.227374E-12  0.346E-06    3.67    5670.2  T
     SCC iter.                  ...        0 min,  0.073 sec
     gradient                   ...        0 min,  0.002 sec
 * total energy  :   -31.5566334 Eh     change       -0.4338585E-04 Eh
   gradient norm :     0.0006756 Eh/α   predicted    -0.1587710E-04 ( -63.40%)
   displ. norm   :     0.2832232 α      lambda       -0.3860485E-04
   maximum displ.:     0.2238772 α      in ANC's #1, #2, #5, ...

........................................................................
.............................. CYCLE   18 ..............................
........................................................................

 iter      E             dE          RMSdq      gap      omega  full diag
   1    -32.0768656 -0.320769E+02  0.122E-01    3.67       0.0  T
   2    -32.0768663 -0.699147E-06  0.709E-02    3.67       1.0  T
   3    -32.0768663  0.376606E-07  0.476E-03    3.67       4.1  T
   4    -32.0768664 -0.158091E-06  0.223E-03    3.67       8.8  T
   5    -32.0768665 -0.631717E-07  0.786E-04    3.67      25.0  T
   6    -32.0768665 -0.469686E-08  0.393E-04    3.67      49.9  T
   7    -32.0768665 -0.353566E-09  0.658E-05    3.67     297.9  T
   8    -32.0768665 -0.636291E-10  0.245E-05    3.67     799.1  T
   9    -32.0768665 -0.397193E-11  0.112E-05    3.67    1747.4  T
  10    -32.0768665 -0.675016E-12  0.411E-06    3.67    4772.1  T
  11    -32.0768665 -0.198952E-12  0.116E-06    3.67   16961.8  T
     SCC iter.                  ...        0 min,  0.073 sec
     gradient                   ...        0 min,  0.002 sec
 * total energy  :   -31.5566843 Eh     change       -0.5089895E-04 Eh
   gradient norm :     0.0010058 Eh/α   predicted    -0.1999445E-04 ( -60.72%)
   displ. norm   :     0.3638405 α      lambda       -0.4230153E-04
   maximum displ.:     0.2910116 α      in ANC's #1, #2, #5, ...

........................................................................
.............................. CYCLE   19 ..............................
........................................................................

 iter      E             dE          RMSdq      gap      omega  full diag
   1    -32.0763618 -0.320764E+02  0.159E-01    3.66       0.0  T
   2    -32.0763629 -0.107075E-05  0.930E-02    3.66       1.0  T
   3    -32.0763628  0.625034E-07  0.614E-03    3.66       3.2  T
   4    -32.0763632 -0.303351E-06  0.268E-03    3.66       7.3  T
   5    -32.0763632 -0.631050E-07  0.111E-03    3.66      17.7  T
   6    -32.0763632 -0.987846E-08  0.522E-04    3.66      37.6  T
   7    -32.0763632 -0.601354E-09  0.982E-05    3.66     199.8  T
   8    -32.0763632 -0.167738E-09  0.338E-05    3.66     580.5  T
   9    -32.0763632 -0.101466E-10  0.147E-05    3.66    1330.5  T
  10    -32.0763632 -0.639488E-12  0.575E-06    3.66    3412.1  T
  11    -32.0763632 -0.348166E-12  0.159E-06    3.66   12342.3  T
     SCC iter.                  ...        0 min,  0.074 sec
     gradient                   ...        0 min,  0.002 sec
 * total energy  :   -31.5567345 Eh     change       -0.5019602E-04 Eh
   gradient norm :     0.0016635 Eh/α   predicted    -0.2239872E-04 ( -55.38%)
   displ. norm   :     0.5359042 α      lambda       -0.4915380E-04
   maximum displ.:     0.4346155 α      in ANC's #1, #2, #5, ...

........................................................................
.............................. CYCLE   20 ..............................
........................................................................

 iter      E             dE          RMSdq      gap      omega  full diag
   1    -32.0750863 -0.320751E+02  0.242E-01    3.65       0.0  T
   2    -32.0750886 -0.239312E-05  0.141E-01    3.65       1.0  T
   3    -32.0750885  0.176222E-06  0.886E-03    3.65       2.2  T
   4    -32.0750892 -0.685224E-06  0.406E-03    3.65       4.8  T
   5    -32.0750893 -0.180340E-06  0.146E-03    3.65      13.4  T
   6    -32.0750893 -0.136936E-07  0.689E-04    3.65      28.5  T
   7    -32.0750894 -0.162795E-08  0.133E-04    3.65     147.3  T
   8    -32.0750894 -0.228667E-09  0.444E-05    3.65     441.9  T
   9    -32.0750894 -0.714095E-11  0.187E-05    3.65    1048.1  T
  10    -32.0750894 -0.121503E-11  0.745E-06    3.65    2631.0  T
  11    -32.0750894 -0.103739E-11  0.212E-06    3.65    9267.2  T
     SCC iter.                  ...        0 min,  0.073 sec
     gradient                   ...        0 min,  0.002 sec
 * total energy  :   -31.5567688 Eh     change       -0.3438891E-04 Eh
   gradient norm :     0.0036744 Eh/α   predicted    -0.2771690E-04 ( -19.40%)
   displ. norm   :     0.0557155 α      lambda       -0.3794155E-04
   maximum displ.:     0.0455253 α      in ANC's #1, #2, #44, ...
 * RMSD in coord.:     0.5422441 α      energy gain  -0.3730136E-02 Eh

generating ANC from model Hessian ...
Using Lindh-Hessian (1995)
 Shifting diagonal of input Hessian by   9.156451966065147E-003
 Lowest  eigenvalues of input Hessian
    0.000000    0.000000    0.000000    0.000000    0.000000    0.000000
    0.010000    0.010121    0.010640    0.011186    0.011670    0.012644
    0.015078    0.016537    0.018411    0.018665    0.023611    0.024226
 Highest eigenvalues
    1.361672    1.552657    1.571712    1.880570    1.985678    2.002160
 

........................................................................
.............................. CYCLE   21 ..............................
........................................................................

 iter      E             dE          RMSdq      gap      omega  full diag
   1    -32.0771314 -0.320771E+02  0.292E-02    3.66       0.0  T
   2    -32.0771315 -0.809320E-07  0.171E-02    3.65       1.1  T
   3    -32.0771314  0.608905E-07  0.225E-03    3.65       8.7  T
   4    -32.0771315 -0.828376E-07  0.579E-04    3.65      33.9  T
   5    -32.0771315 -0.890765E-09  0.251E-04    3.65      78.0  T
   6    -32.0771315 -0.479339E-09  0.124E-04    3.65     158.1  T
   7    -32.0771315 -0.109324E-09  0.345E-05    3.65     568.7  T
   8    -32.0771315 -0.814282E-11  0.878E-06    3.65    2232.4  T
   9    -32.0771315 -0.213163E-12  0.405E-06    3.65    4843.9  T
     SCC iter.                  ...        0 min,  0.072 sec
     gradient                   ...        0 min,  0.002 sec
 * total energy  :   -31.5567944 Eh     change       -0.2554863E-04 Eh
   gradient norm :     0.0014526 Eh/α   predicted     0.0000000E+00 (-100.00%)
   displ. norm   :     0.0446799 α      lambda       -0.2134615E-05
   maximum displ.:     0.0287030 α      in ANC's #2, #4, #5, ...

........................................................................
.............................. CYCLE   22 ..............................
........................................................................

 iter      E             dE          RMSdq      gap      omega  full diag
   1    -32.0778288 -0.320778E+02  0.183E-02    3.66       0.0  T
   2    -32.0778288 -0.312987E-07  0.107E-02    3.66       1.8  T
   3    -32.0778288  0.273025E-07  0.141E-03    3.66      13.9  T
   4    -32.0778288 -0.358593E-07  0.286E-04    3.66      68.6  T
   5    -32.0778288 -0.652697E-09  0.146E-04    3.66     134.0  T
   6    -32.0778288 -0.209731E-09  0.812E-05    3.66     241.6  T
   7    -32.0778288 -0.449631E-10  0.279E-05    3.66     702.2  T
   8    -32.0778288 -0.333245E-11  0.104E-05    3.66    1884.1  T
   9    -32.0778288 -0.653699E-12  0.392E-06    3.66    5004.7  T
  10    -32.0778288 -0.781597E-13  0.171E-06    3.66   11473.7  T
     SCC iter.                  ...        0 min,  0.078 sec
     gradient                   ...        0 min,  0.002 sec
 * total energy  :   -31.5568107 Eh     change       -0.1633408E-04 Eh
   gradient norm :     0.0005028 Eh/α   predicted    -0.7376868E-05 ( -54.84%)
   displ. norm   :     0.0884934 α      lambda       -0.1657258E-04
   maximum displ.:     0.0556785 α      in ANC's #2, #5, #4, ...

........................................................................
.............................. CYCLE   23 ..............................
........................................................................

 iter      E             dE          RMSdq      gap      omega  full diag
   1    -32.0779437 -0.320779E+02  0.321E-02    3.66       0.0  T
   2    -32.0779438 -0.800688E-07  0.186E-02    3.66       1.1  T
   3    -32.0779438  0.747542E-07  0.239E-03    3.66       8.2  T
   4    -32.0779438 -0.842829E-07  0.898E-04    3.66      21.8  T
   5    -32.0779439 -0.142812E-07  0.182E-04    3.66     107.9  T
   6    -32.0779439  0.336087E-11  0.758E-05    3.66     258.7  T
   7    -32.0779439 -0.203428E-10  0.190E-05    3.66    1033.0  T
   8    -32.0779439 -0.381561E-11  0.810E-06    3.66    2422.3  T
   9    -32.0779439 -0.753175E-12  0.330E-06    3.66    5951.5  T
     SCC iter.                  ...        0 min,  0.072 sec
     gradient                   ...        0 min,  0.002 sec
 * total energy  :   -31.5568299 Eh     change       -0.1919731E-04 Eh
   gradient norm :     0.0010493 Eh/α   predicted    -0.8319396E-05 ( -56.66%)
   displ. norm   :     0.1013533 α      lambda       -0.1367936E-04
   maximum displ.:     0.0674144 α      in ANC's #2, #5, #4, ...

........................................................................
.............................. CYCLE   24 ..............................
........................................................................

 iter      E             dE          RMSdq      gap      omega  full diag
   1    -32.0776574 -0.320777E+02  0.377E-02    3.66       0.0  T
   2    -32.0776575 -0.850616E-07  0.220E-02    3.66       1.0  T
   3    -32.0776574  0.674912E-07  0.222E-03    3.66       8.8  T
   4    -32.0776575 -0.803026E-07  0.941E-04    3.66      20.8  T
   5    -32.0776575 -0.151184E-07  0.268E-04    3.66      73.1  T
   6    -32.0776575 -0.124587E-09  0.133E-04    3.66     147.3  T
   7    -32.0776575 -0.640838E-10  0.342E-05    3.66     573.4  T
   8    -32.0776575 -0.113900E-10  0.110E-05    3.66    1780.9  T
   9    -32.0776575 -0.125766E-11  0.409E-06    3.66    4793.8  T
  10    -32.0776575 -0.127898E-12  0.188E-06    3.66   10441.6  T
     SCC iter.                  ...        0 min,  0.073 sec
     gradient                   ...        0 min,  0.002 sec
 * total energy  :   -31.5568456 Eh     change       -0.1565907E-04 Eh
   gradient norm :     0.0007952 Eh/α   predicted    -0.6873417E-05 ( -56.11%)
   displ. norm   :     0.0847853 α      lambda       -0.9264521E-05
   maximum displ.:     0.0609971 α      in ANC's #2, #5, #1, ...

........................................................................
.............................. CYCLE   25 ..............................
........................................................................

 iter      E             dE          RMSdq      gap      omega  full diag
   1    -32.0775950 -0.320776E+02  0.336E-02    3.65       0.0  T
   2    -32.0775951 -0.900732E-07  0.196E-02    3.65       1.0  T
   3    -32.0775950  0.471709E-07  0.218E-03    3.65       9.0  T
   4    -32.0775951 -0.585493E-07  0.923E-04    3.65      21.3  T
   5    -32.0775951 -0.127444E-07  0.279E-04    3.65      70.2  T
   6    -32.0775951 -0.613511E-09  0.107E-04    3.65     183.5  T
   7    -32.0775951 -0.203002E-10  0.413E-05    3.65     474.9  T
   8    -32.0775951 -0.111626E-10  0.130E-05    3.65    1512.1  T
   9    -32.0775951 -0.300560E-11  0.370E-06    3.65    5295.1  T
  10    -32.0775951 -0.234479E-12  0.135E-06    3.65   14553.5  T
     SCC iter.                  ...        0 min,  0.073 sec
     gradient                   ...        0 min,  0.002 sec
 * total energy  :   -31.5568564 Eh     change       -0.1083333E-04 Eh
   gradient norm :     0.0004938 Eh/α   predicted    -0.4647419E-05 ( -57.10%)
   displ. norm   :     0.0669771 α      lambda       -0.7008635E-05
   maximum displ.:     0.0505675 α      in ANC's #2, #5, #1, ...

........................................................................
.............................. CYCLE   26 ..............................
........................................................................

 iter      E             dE          RMSdq      gap      omega  full diag
   1    -32.0775039 -0.320775E+02  0.281E-02    3.65       0.0  T
   2    -32.0775039 -0.530299E-07  0.164E-02    3.65       1.2  T
   3    -32.0775039 -0.269139E-08  0.127E-03    3.65      15.5  T
   4    -32.0775039 -0.845103E-08  0.520E-04    3.65      37.7  T
   5    -32.0775039 -0.181465E-08  0.202E-04    3.65      96.9  T
   6    -32.0775039 -0.508550E-09  0.932E-05    3.65     210.5  T
   7    -32.0775039 -0.334381E-10  0.249E-05    3.65     788.3  T
   8    -32.0775039 -0.412825E-11  0.636E-06    3.65    3083.3  T
   9    -32.0775039 -0.554223E-12  0.265E-06    3.65    7400.0  T
     SCC iter.                  ...        0 min,  0.072 sec
     gradient                   ...        0 min,  0.002 sec
 * total energy  :   -31.5568654 Eh     change       -0.8967582E-05 Eh
   gradient norm :     0.0004493 Eh/α   predicted    -0.3512072E-05 ( -60.84%)
   displ. norm   :     0.0665201 α      lambda       -0.7199324E-05
   maximum displ.:     0.0498891 α      in ANC's #2, #1, #5, ...

........................................................................
.............................. CYCLE   27 ..............................
........................................................................

 iter      E             dE          RMSdq      gap      omega  full diag
   1    -32.0775502 -0.320776E+02  0.283E-02    3.65       0.0  T
   2    -32.0775502 -0.386936E-07  0.165E-02    3.65       1.2  T
   3    -32.0775502 -0.583010E-08  0.887E-04    3.65      22.1  T
   4    -32.0775502 -0.251485E-08  0.440E-04    3.65      44.6  T
   5    -32.0775502 -0.213802E-08  0.149E-04    3.65     131.4  T
   6    -32.0775502 -0.452971E-10  0.752E-05    3.65     260.6  T
   7    -32.0775502 -0.529496E-10  0.162E-05    3.65    1210.5  T
   8    -32.0775502 -0.143530E-11  0.624E-06    3.65    3141.2  T
   9    -32.0775502 -0.476064E-12  0.246E-06    3.65    7962.2  T
     SCC iter.                  ...        0 min,  0.072 sec
     gradient                   ...        0 min,  0.002 sec
 * total energy  :   -31.5568750 Eh     change       -0.9634127E-05 Eh
   gradient norm :     0.0006214 Eh/α   predicted    -0.3607221E-05 ( -62.56%)
   displ. norm   :     0.0843252 α      lambda       -0.8834167E-05
   maximum displ.:     0.0621238 α      in ANC's #2, #1, #3, ...

........................................................................
.............................. CYCLE   28 ..............................
........................................................................

 iter      E             dE          RMSdq      gap      omega  full diag
   1    -32.0775978 -0.320776E+02  0.370E-02    3.65       0.0  T
   2    -32.0775978 -0.533068E-07  0.215E-02    3.65       1.0  T
   3    -32.0775979 -0.119912E-07  0.938E-04    3.65      20.9  T
   4    -32.0775979 -0.675712E-09  0.452E-04    3.65      43.4  T
   5    -32.0775979 -0.243560E-08  0.180E-04    3.65     109.1  T
   6    -32.0775979 -0.434142E-10  0.674E-05    3.65     291.1  T
   7    -32.0775979 -0.324079E-10  0.233E-05    3.65     841.6  T
   8    -32.0775979 -0.588329E-11  0.572E-06    3.65    3428.3  T
   9    -32.0775979 -0.383693E-12  0.309E-06    3.65    6356.2  T
     SCC iter.                  ...        0 min,  0.072 sec
     gradient                   ...        0 min,  0.002 sec
 * total energy  :   -31.5568866 Eh     change       -0.1157119E-04 Eh
   gradient norm :     0.0006105 Eh/α   predicted    -0.4431249E-05 ( -61.70%)
   displ. norm   :     0.0990666 α      lambda       -0.9121389E-05
   maximum displ.:     0.0731956 α      in ANC's #2, #1, #3, ...

........................................................................
.............................. CYCLE   29 ..............................
........................................................................

 iter      E             dE          RMSdq      gap      omega  full diag
   1    -32.0776093 -0.320776E+02  0.451E-02    3.65       0.0  T
   2    -32.0776094 -0.752141E-07  0.263E-02    3.65       1.0  T
   3    -32.0776094 -0.134860E-07  0.122E-03    3.65      16.0  T
   4    -32.0776094 -0.452811E-08  0.572E-04    3.65      34.3  T
   5    -32.0776094 -0.392816E-08  0.253E-04    3.65      77.6  T
   6    -32.0776094 -0.511534E-09  0.111E-04    3.65     176.1  T
   7    -32.0776094 -0.234124E-10  0.209E-05    3.65     938.8  T
   8    -32.0776094 -0.510170E-11  0.734E-06    3.65    2673.6  T
   9    -32.0776094 -0.184741E-12  0.386E-06    3.65    5081.6  T
     SCC iter.                  ...        0 min,  0.072 sec
     gradient                   ...        0 min,  0.002 sec
 * total energy  :   -31.5568983 Eh     change       -0.1173397E-04 Eh
   gradient norm :     0.0004690 Eh/α   predicted    -0.4580971E-05 ( -60.96%)
   displ. norm   :     0.1013121 α      lambda       -0.7981814E-05
   maximum displ.:     0.0754495 α      in ANC's #2, #1, #9, ...

........................................................................
.............................. CYCLE   30 ..............................
........................................................................

 iter      E             dE          RMSdq      gap      omega  full diag
   1    -32.0776450 -0.320776E+02  0.486E-02    3.65       0.0  T
   2    -32.0776450 -0.795134E-07  0.283E-02    3.65       1.0  T
   3    -32.0776450 -0.140276E-07  0.118E-03    3.65      16.7  T
   4    -32.0776450 -0.319675E-08  0.701E-04    3.65      28.0  T
   5    -32.0776451 -0.670978E-08  0.239E-04    3.65      81.9  T
   6    -32.0776451  0.562963E-10  0.829E-05    3.65     236.6  T
   7    -32.0776451 -0.929177E-10  0.204E-05    3.65     963.7  T
   8    -32.0776451 -0.240163E-11  0.648E-06    3.65    3028.5  T
   9    -32.0776451 -0.220268E-12  0.377E-06    3.65    5206.5  T
     SCC iter.                  ...        0 min,  0.072 sec
     gradient                   ...        0 min,  0.002 sec
 * total energy  :   -31.5569087 Eh     change       -0.1042382E-04 Eh
   gradient norm :     0.0003964 Eh/α   predicted    -0.4009822E-05 ( -61.53%)
   displ. norm   :     0.1044766 α      lambda       -0.7625175E-05
   maximum displ.:     0.0776037 α      in ANC's #2, #1, #3, ...

........................................................................
.............................. CYCLE   31 ..............................
........................................................................

 iter      E             dE          RMSdq      gap      omega  full diag
   1    -32.0776732 -0.320777E+02  0.517E-02    3.65       0.0  T
   2    -32.0776733 -0.613101E-07  0.302E-02    3.65       1.0  T
   3    -32.0776733 -0.112126E-07  0.114E-03    3.65      17.1  T
   4    -32.0776733 -0.114623E-07  0.630E-04    3.65      31.1  T
   5    -32.0776733 -0.401033E-08  0.216E-04    3.65      90.9  T
   6    -32.0776733 -0.607798E-10  0.771E-05    3.65     254.3  T
   7    -32.0776733 -0.395417E-10  0.203E-05    3.65     964.6  T
   8    -32.0776733 -0.797229E-11  0.728E-06    3.65    2693.4  T
   9    -32.0776733 -0.525802E-12  0.262E-06    3.65    7474.5  T
     SCC iter.                  ...        0 min,  0.072 sec
     gradient                   ...        0 min,  0.002 sec
 * total energy  :   -31.5569191 Eh     change       -0.1031957E-04 Eh
   gradient norm :     0.0003053 Eh/α   predicted    -0.3831752E-05 ( -62.87%)
   displ. norm   :     0.1306005 α      lambda       -0.9292678E-05
   maximum displ.:     0.0956478 α      in ANC's #2, #1, #5, ...

........................................................................
.............................. CYCLE   32 ..............................
........................................................................

 iter      E             dE          RMSdq      gap      omega  full diag
   1    -32.0776400 -0.320776E+02  0.654E-02    3.65       0.0  T
   2    -32.0776402 -0.109063E-06  0.382E-02    3.65       1.0  T
   3    -32.0776402 -0.147725E-07  0.148E-03    3.65      13.3  T
   4    -32.0776402 -0.172353E-07  0.919E-04    3.65      21.3  T
   5    -32.0776402 -0.100876E-07  0.312E-04    3.65      62.8  T
   6    -32.0776402 -0.506049E-10  0.121E-04    3.65     161.8  T
   7    -32.0776402 -0.807390E-10  0.292E-05    3.65     670.5  T
   8    -32.0776402 -0.999734E-11  0.111E-05    3.65    1762.7  T
   9    -32.0776402 -0.220268E-11  0.520E-06    3.65    3770.1  T
  10    -32.0776402 -0.284217E-13  0.139E-06    3.65   14105.8  T
     SCC iter.                  ...        0 min,  0.073 sec
     gradient                   ...        0 min,  0.002 sec
 * total energy  :   -31.5569319 Eh     change       -0.1287088E-04 Eh
   gradient norm :     0.0003735 Eh/α   predicted    -0.4682843E-05 ( -63.62%)
   displ. norm   :     0.2128185 α      lambda       -0.1452283E-04
   maximum displ.:     0.1543210 α      in ANC's #2, #1, #5, ...

........................................................................
.............................. CYCLE   33 ..............................
........................................................................

 iter      E             dE          RMSdq      gap      omega  full diag
   1    -32.0773819 -0.320774E+02  0.106E-01    3.64       0.0  T
   2    -32.0773822 -0.282298E-06  0.622E-02    3.64       1.0  T
   3    -32.0773822 -0.280207E-07  0.246E-03    3.64       8.0  T
   4    -32.0773823 -0.624871E-07  0.144E-03    3.64      13.6  T
   5    -32.0773823 -0.232380E-07  0.531E-04    3.64      36.9  T
   6    -32.0773823 -0.341259E-09  0.201E-04    3.64      97.8  T
   7    -32.0773823 -0.189225E-09  0.507E-05    3.64     386.5  T
   8    -32.0773823 -0.368203E-10  0.171E-05    3.64    1148.4  T
   9    -32.0773823 -0.501643E-11  0.768E-06    3.64    2551.9  T
  10    -32.0773823 -0.220268E-12  0.207E-06    3.64    9491.8  T
     SCC iter.                  ...        0 min,  0.073 sec
     gradient                   ...        0 min,  0.002 sec
 * total energy  :   -31.5569512 Eh     change       -0.1926236E-04 Eh
   gradient norm :     0.0006919 Eh/α   predicted    -0.7408091E-05 ( -61.54%)
   displ. norm   :     0.5231916 α      lambda       -0.3026751E-04
   maximum displ.:     0.3799152 α      in ANC's #2, #1, #5, ...

........................................................................
.............................. CYCLE   34 ..............................
........................................................................

 iter      E             dE          RMSdq      gap      omega  full diag
   1    -32.0751795 -0.320752E+02  0.262E-01    3.63       0.0  T
   2    -32.0751813 -0.172701E-05  0.153E-01    3.63       1.0  T
   3    -32.0751813 -0.461992E-07  0.648E-03    3.63       3.0  T
   4    -32.0751819 -0.549332E-06  0.335E-03    3.63       5.9  T
   5    -32.0751820 -0.104931E-06  0.130E-03    3.63      15.1  T
   6    -32.0751820 -0.271042E-08  0.526E-04    3.63      37.3  T
   7    -32.0751820 -0.169344E-08  0.131E-04    3.63     150.2  T
   8    -32.0751820 -0.245372E-09  0.406E-05    3.63     482.5  T
   9    -32.0751820 -0.247837E-10  0.209E-05    3.63     939.5  T
  10    -32.0751820 -0.267875E-11  0.591E-06    3.63    3318.8  T
  11    -32.0751820 -0.184741E-12  0.166E-06    3.63   11834.5  T
     SCC iter.                  ...        0 min,  0.073 sec
     gradient                   ...        0 min,  0.002 sec
 * total energy  :   -31.5569663 Eh     change       -0.1512102E-04 Eh
   gradient norm :     0.0035329 Eh/α   predicted    -0.1697696E-04 (  12.27%)
   displ. norm   :     0.0702874 α      lambda       -0.2387036E-04
   maximum displ.:     0.0497248 α      in ANC's #2, #1, #3, ...

........................................................................
.............................. CYCLE   35 ..............................
........................................................................

 iter      E             dE          RMSdq      gap      omega  full diag
   1    -32.0768804 -0.320769E+02  0.367E-02    3.64       0.0  T
   2    -32.0768805 -0.746386E-07  0.215E-02    3.64       1.0  T
   3    -32.0768804  0.826334E-07  0.228E-03    3.64       8.6  T
   4    -32.0768805 -0.109588E-06  0.540E-04    3.64      36.3  T
   5    -32.0768805 -0.112430E-08  0.235E-04    3.64      83.5  T
   6    -32.0768805 -0.325990E-09  0.113E-04    3.64     173.3  T
   7    -32.0768805 -0.788702E-10  0.268E-05    3.64     732.0  T
   8    -32.0768805 -0.449774E-11  0.803E-06    3.64    2443.7  T
   9    -32.0768805 -0.838440E-12  0.428E-06    3.64    4583.4  T
     SCC iter.                  ...        0 min,  0.072 sec
     gradient                   ...        0 min,  0.002 sec
 * total energy  :   -31.5569815 Eh     change       -0.1522704E-04 Eh
   gradient norm :     0.0014901 Eh/α   predicted    -0.1199613E-04 ( -21.22%)
   displ. norm   :     0.1360437 α      lambda       -0.1191792E-04
   maximum displ.:     0.0964256 α      in ANC's #2, #1, #5, ...

........................................................................
.............................. CYCLE   36 ..............................
........................................................................

 iter      E             dE          RMSdq      gap      omega  full diag
   1    -32.0780846 -0.320781E+02  0.661E-02    3.64       0.0  T
   2    -32.0780847 -0.109057E-06  0.387E-02    3.64       1.0  T
   3    -32.0780847 -0.369320E-08  0.167E-03    3.64      11.7  T
   4    -32.0780848 -0.414924E-07  0.679E-04    3.64      28.9  T
   5    -32.0780848 -0.198934E-08  0.252E-04    3.64      77.9  T
   6    -32.0780848 -0.763976E-10  0.992E-05    3.64     197.6  T
   7    -32.0780848 -0.989644E-10  0.213E-05    3.64     918.9  T
   8    -32.0780848 -0.625988E-11  0.846E-06    3.64    2317.9  T
   9    -32.0780848 -0.760281E-12  0.383E-06    3.64    5123.6  T
     SCC iter.                  ...        0 min,  0.073 sec
     gradient                   ...        0 min,  0.002 sec
 * total energy  :   -31.5569931 Eh     change       -0.1155277E-04 Eh
   gradient norm :     0.0005387 Eh/α   predicted    -0.6011445E-05 ( -47.97%)
   displ. norm   :     0.2932568 α      lambda       -0.1008322E-04
   maximum displ.:     0.2099410 α      in ANC's #2, #1, #5, ...

........................................................................
.............................. CYCLE   37 ..............................
........................................................................

 iter      E             dE          RMSdq      gap      omega  full diag
   1    -32.0772175 -0.320772E+02  0.145E-01    3.64       0.0  T
   2    -32.0772179 -0.464820E-06  0.848E-02    3.64       1.0  T
   3    -32.0772181 -0.127803E-06  0.263E-03    3.64       7.5  T
   4    -32.0772181 -0.536880E-07  0.158E-03    3.64      12.4  T
   5    -32.0772181 -0.183021E-07  0.602E-04    3.64      32.6  T
   6    -32.0772181 -0.392376E-09  0.229E-04    3.64      85.5  T
   7    -32.0772181 -0.436863E-09  0.465E-05    3.64     421.6  T
   8    -32.0772181 -0.145945E-10  0.181E-05    3.64    1081.1  T
   9    -32.0772181 -0.435563E-11  0.904E-06    3.64    2170.1  T
  10    -32.0772181 -0.405009E-12  0.242E-06    3.64    8089.0  T
     SCC iter.                  ...        0 min,  0.073 sec
     gradient                   ...        0 min,  0.002 sec
 * total energy  :   -31.5570033 Eh     change       -0.1016175E-04 Eh
   gradient norm :     0.0009804 Eh/α   predicted    -0.5238939E-05 ( -48.44%)
   displ. norm   :     0.1446532 α      lambda       -0.3788616E-05
   maximum displ.:     0.1007542 α      in ANC's #2, #1, #5, ...

........................................................................
.............................. CYCLE   38 ..............................
........................................................................

 iter      E             dE          RMSdq      gap      omega  full diag
   1    -32.0771799 -0.320772E+02  0.712E-02    3.64       0.0  T
   2    -32.0771800 -0.971572E-07  0.417E-02    3.63       1.0  T
   3    -32.0771801 -0.352464E-07  0.113E-03    3.63      17.4  T
   4    -32.0771801 -0.803052E-08  0.674E-04    3.63      29.1  T
   5    -32.0771801 -0.197281E-08  0.262E-04    3.63      74.9  T
   6    -32.0771801 -0.119329E-09  0.990E-05    3.63     198.2  T
   7    -32.0771801 -0.126406E-09  0.180E-05    3.63    1090.3  T
   8    -32.0771801 -0.270717E-11  0.878E-06    3.63    2232.8  T
   9    -32.0771801 -0.923706E-12  0.378E-06    3.63    5193.9  T
     SCC iter.                  ...        0 min,  0.073 sec
     gradient                   ...        0 min,  0.002 sec
 * total energy  :   -31.5570071 Eh     change       -0.3808708E-05 Eh
   gradient norm :     0.0010530 Eh/α   predicted    -0.1912835E-05 ( -49.78%)
   displ. norm   :     0.1098845 α      lambda       -0.4421328E-05
   maximum displ.:     0.0749297 α      in ANC's #1, #2, #5, ...

........................................................................
.............................. CYCLE   39 ..............................
........................................................................

 iter      E             dE          RMSdq      gap      omega  full diag
   1    -32.0778196 -0.320778E+02  0.533E-02    3.64       0.0  T
   2    -32.0778197 -0.738873E-07  0.312E-02    3.64       1.0  T
   3    -32.0778197 -0.733706E-08  0.132E-03    3.64      14.9  T
   4    -32.0778197 -0.203367E-07  0.615E-04    3.64      31.9  T
   5    -32.0778197 -0.242369E-08  0.262E-04    3.64      74.8  T
   6    -32.0778197 -0.188010E-09  0.111E-04    3.64     177.1  T
   7    -32.0778197 -0.781384E-10  0.225E-05    3.64     870.7  T
   8    -32.0778197 -0.622435E-11  0.855E-06    3.64    2293.8  T
   9    -32.0778197 -0.689226E-12  0.371E-06    3.64    5280.5  T
     SCC iter.                  ...        0 min,  0.072 sec
     gradient                   ...        0 min,  0.002 sec
 * total energy  :   -31.5570108 Eh     change       -0.3750615E-05 Eh
   gradient norm :     0.0005369 Eh/α   predicted    -0.2224804E-05 ( -40.68%)
   displ. norm   :     0.1348056 α      lambda       -0.2349637E-05
   maximum displ.:     0.0925822 α      in ANC's #1, #2, #5, ...

........................................................................
.............................. CYCLE   40 ..............................
........................................................................

 iter      E             dE          RMSdq      gap      omega  full diag
   1    -32.0776997 -0.320777E+02  0.672E-02    3.64       0.0  T
   2    -32.0776998 -0.959357E-07  0.393E-02    3.64       1.0  T
   3    -32.0776998 -0.306300E-07  0.109E-03    3.64      18.0  T
   4    -32.0776998 -0.601989E-08  0.779E-04    3.64      25.2  T
   5    -32.0776999 -0.372154E-08  0.273E-04    3.64      71.7  T
   6    -32.0776999  0.852154E-10  0.945E-05    3.64     207.4  T
   7    -32.0776999 -0.189225E-09  0.246E-05    3.64     798.6  T
   8    -32.0776999 -0.442668E-11  0.956E-06    3.64    2052.2  T
   9    -32.0776999 -0.589750E-12  0.539E-06    3.64    3640.8  T
     SCC iter.                  ...        0 min,  0.073 sec
     gradient                   ...        0 min,  0.002 sec
 * total energy  :   -31.5570127 Eh     change       -0.1930287E-05 Eh
   gradient norm :     0.0005288 Eh/α   predicted    -0.1185798E-05 ( -38.57%)
   displ. norm   :     0.0604532 α      lambda       -0.1717327E-05
   maximum displ.:     0.0423424 α      in ANC's #1, #2, #5, ...

........................................................................
.............................. CYCLE   41 ..............................
........................................................................

 iter      E             dE          RMSdq      gap      omega  full diag
   1    -32.0779860 -0.320780E+02  0.301E-02    3.64       0.0  T
   2    -32.0779861 -0.220347E-07  0.176E-02    3.64       1.1  T
   3    -32.0779861  0.588216E-09  0.821E-04    3.64      23.9  T
   4    -32.0779861 -0.793489E-08  0.397E-04    3.64      49.4  T
   5    -32.0779861 -0.164695E-08  0.161E-04    3.64     121.7  T
   6    -32.0779861 -0.540794E-10  0.700E-05    3.64     280.0  T
   7    -32.0779861 -0.285851E-10  0.150E-05    3.64    1309.8  T
   8    -32.0779861 -0.285638E-11  0.630E-06    3.64    3111.3  T
   9    -32.0779861 -0.468958E-12  0.244E-06    3.64    8046.7  T
     SCC iter.                  ...        0 min,  0.073 sec
     gradient                   ...        0 min,  0.002 sec
 * total energy  :   -31.5570143 Eh     change       -0.1506555E-05 Eh
   gradient norm :     0.0006150 Eh/α   predicted    -0.8616754E-06 ( -42.80%)
   displ. norm   :     0.0480723 α      lambda       -0.1822544E-05
   maximum displ.:     0.0334864 α      in ANC's #1, #2, #5, ...

........................................................................
.............................. CYCLE   42 ..............................
........................................................................

 iter      E             dE          RMSdq      gap      omega  full diag
   1    -32.0779852 -0.320780E+02  0.232E-02    3.64       0.0  T
   2    -32.0779852 -0.149687E-07  0.135E-02    3.64       1.5  T
   3    -32.0779852 -0.267444E-08  0.610E-04    3.64      32.1  T
   4    -32.0779852 -0.254970E-08  0.256E-04    3.64      76.7  T
   5    -32.0779852 -0.375948E-09  0.110E-04    3.64     178.4  T
   6    -32.0779852 -0.371756E-10  0.532E-05    3.64     368.3  T
   7    -32.0779852 -0.298428E-10  0.884E-06    3.64    2219.6  T
   8    -32.0779852 -0.142109E-12  0.441E-06    3.64    4444.7  T
     SCC iter.                  ...        0 min,  0.072 sec
     gradient                   ...        0 min,  0.002 sec
 * total energy  :   -31.5570161 Eh     change       -0.1868573E-05 Eh
   gradient norm :     0.0003651 Eh/α   predicted    -0.9169615E-06 ( -50.93%)
   displ. norm   :     0.0598466 α      lambda       -0.1701083E-05
   maximum displ.:     0.0412008 α      in ANC's #1, #2, #5, ...
 * RMSD in coord.:     0.4882569 α      energy gain  -0.2472833E-03 Eh

generating ANC from model Hessian ...
Using Lindh-Hessian (1995)
 Shifting diagonal of input Hessian by   9.184917000377537E-003
 Lowest  eigenvalues of input Hessian
    0.000000    0.000000    0.000000    0.000000    0.000000    0.000000
    0.010000    0.010163    0.010569    0.011152    0.011773    0.012738
    0.015024    0.016603    0.018467    0.018687    0.024250    0.025024
 Highest eigenvalues
    1.363516    1.554613    1.573250    1.882781    1.988627    2.004739
 

........................................................................
.............................. CYCLE   43 ..............................
........................................................................

 iter      E             dE          RMSdq      gap      omega  full diag
   1    -32.0779898 -0.320780E+02  0.275E-02    3.64       0.0  T
   2    -32.0779898 -0.183740E-07  0.161E-02    3.64       1.2  T
   3    -32.0779898  0.775226E-08  0.876E-04    3.64      22.4  T
   4    -32.0779898 -0.151799E-07  0.343E-04    3.64      57.2  T
   5    -32.0779898 -0.113090E-08  0.127E-04    3.64     154.0  T
   6    -32.0779898 -0.223821E-11  0.496E-05    3.64     395.6  T
   7    -32.0779898 -0.336087E-10  0.150E-05    3.64    1304.5  T
   8    -32.0779898 -0.232347E-11  0.398E-06    3.64    4928.4  T
   9    -32.0779898 -0.135003E-12  0.219E-06    3.64    8936.0  T
     SCC iter.                  ...        0 min,  0.072 sec
     gradient                   ...        0 min,  0.002 sec
 * total energy  :   -31.5570179 Eh     change       -0.1770977E-05 Eh
   gradient norm :     0.0003919 Eh/α   predicted     0.0000000E+00 (-100.00%)
   displ. norm   :     0.0092395 α      lambda       -0.1557739E-06
   maximum displ.:     0.0050506 α      in ANC's #4, #3, #1, ...

........................................................................
.............................. CYCLE   44 ..............................
........................................................................

 iter      E             dE          RMSdq      gap      omega  full diag
   1    -32.0779630 -0.320780E+02  0.397E-03    3.64       0.0  T
   2    -32.0779630 -0.400798E-08  0.227E-03    3.64       8.7  T
   3    -32.0779630  0.249160E-08  0.552E-04    3.64      35.5  T
   4    -32.0779630 -0.325844E-08  0.150E-04    3.64     130.7  T
   5    -32.0779630 -0.142208E-09  0.567E-05    3.64     346.0  T
   6    -32.0779630 -0.404725E-10  0.277E-05    3.64     708.5  T
   7    -32.0779630 -0.342482E-11  0.950E-06    3.64    2065.1  T
   8    -32.0779630 -0.284217E-13  0.328E-06    3.64    5972.2  T
     SCC iter.                  ...        0 min,  0.072 sec
     gradient                   ...        0 min,  0.002 sec
 * total energy  :   -31.5570186 Eh     change       -0.7092837E-06 Eh
   gradient norm :     0.0001415 Eh/α   predicted    -0.3967187E-06 ( -44.07%)
   displ. norm   :     0.0134415 α      lambda       -0.5207343E-06
   maximum displ.:     0.0076640 α      in ANC's #4, #3, #1, ...

........................................................................
.............................. CYCLE   45 ..............................
........................................................................

 iter      E             dE          RMSdq      gap      omega  full diag
   1    -32.0779614 -0.320780E+02  0.328E-03    3.64       0.0  T
   2    -32.0779614 -0.197173E-08  0.187E-03    3.64      10.5  T
   3    -32.0779614  0.151288E-08  0.405E-04    3.64      48.4  T
   4    -32.0779614 -0.175523E-08  0.138E-04    3.64     142.5  T
   5    -32.0779614 -0.283158E-09  0.417E-05    3.64     470.0  T
   6    -32.0779614 -0.111768E-10  0.156E-05    3.64    1260.9  T
   7    -32.0779614 -0.426326E-13  0.692E-06    3.64    2834.1  T
   8    -32.0779614 -0.504485E-12  0.216E-06    3.64    9083.7  T
     SCC iter.                  ...        0 min,  0.072 sec
     gradient                   ...        0 min,  0.002 sec
 * total energy  :   -31.5570192 Eh     change       -0.5894035E-06 Eh
   gradient norm :     0.0002430 Eh/α   predicted    -0.2652590E-06 ( -55.00%)
   displ. norm   :     0.0176428 α      lambda       -0.4881834E-06
   maximum displ.:     0.0103478 α      in ANC's #3, #4, #1, ...

........................................................................
.............................. CYCLE   46 ..............................
........................................................................

 iter      E             dE          RMSdq      gap      omega  full diag
   1    -32.0779590 -0.320780E+02  0.391E-03    3.64       0.0  T
   2    -32.0779590 -0.251642E-08  0.228E-03    3.64       8.6  T
   3    -32.0779590  0.336551E-08  0.438E-04    3.64      44.8  T
   4    -32.0779590 -0.353620E-08  0.177E-04    3.64     111.1  T
   5    -32.0779590 -0.681311E-09  0.536E-05    3.64     365.7  T
   6    -32.0779590 -0.662226E-11  0.183E-05    3.64    1071.7  T
   7    -32.0779590 -0.376588E-12  0.611E-06    3.64    3209.2  T
   8    -32.0779590 -0.554223E-12  0.203E-06    3.64    9666.8  T
     SCC iter.                  ...        0 min,  0.072 sec
     gradient                   ...        0 min,  0.002 sec
 * total energy  :   -31.5570197 Eh     change       -0.5509318E-06 Eh
   gradient norm :     0.0001493 Eh/α   predicted    -0.2471576E-06 ( -55.14%)
   displ. norm   :     0.0171895 α      lambda       -0.3476912E-06
   maximum displ.:     0.0110859 α      in ANC's #3, #1, #4, ...

........................................................................
.............................. CYCLE   47 ..............................
........................................................................

 iter      E             dE          RMSdq      gap      omega  full diag
   1    -32.0779627 -0.320780E+02  0.469E-03    3.64       0.0  T
   2    -32.0779627 -0.335275E-08  0.267E-03    3.64       7.3  T
   3    -32.0779627  0.270904E-08  0.449E-04    3.64      43.7  T
   4    -32.0779627 -0.259747E-08  0.217E-04    3.64      90.3  T
   5    -32.0779627 -0.971134E-09  0.445E-05    3.64     441.2  T
   6    -32.0779627 -0.574119E-11  0.185E-05    3.64    1058.2  T
   7    -32.0779627  0.639488E-13  0.929E-06    3.64    2111.3  T
   8    -32.0779627 -0.490274E-12  0.273E-06    3.64    7193.4  T
     SCC iter.                  ...        0 min,  0.072 sec
     gradient                   ...        0 min,  0.002 sec
 * total energy  :   -31.5570201 Eh     change       -0.3766858E-06 Eh
   gradient norm :     0.0000854 Eh/α   predicted    -0.1752396E-06 ( -53.48%)
   displ. norm   :     0.0171895 α      lambda        0.0000000E+00
   maximum displ.:     0.0110859 α      in ANC's #3, #1, #4, ...

........................................................................
.............................. CYCLE   48 ..............................
........................................................................

 iter      E             dE          RMSdq      gap      omega  full diag
   1    -32.0779626 -0.320780E+02  0.469E-03    3.64       0.0  T
   2    -32.0779626 -0.334479E-08  0.267E-03    3.64       7.3  T
   3    -32.0779626  0.267904E-08  0.448E-04    3.64      43.8  T
   4    -32.0779626 -0.256601E-08  0.217E-04    3.64      90.5  T
   5    -32.0779626 -0.970154E-09  0.446E-05    3.64     439.4  T
   6    -32.0779626 -0.578382E-11  0.186E-05    3.64    1053.7  T
   7    -32.0779626  0.497380E-13  0.930E-06    3.64    2109.3  T
   8    -32.0779626 -0.504485E-12  0.273E-06    3.64    7174.6  T
     SCC iter.                  ...        0 min,  0.072 sec
     gradient                   ...        0 min,  0.002 sec
 * total energy  :   -31.5570202 Eh     change       -0.7944782E-07 Eh
   gradient norm :     0.0002109 Eh/α   predicted     0.4199344E-08 (-105.29%)
   displ. norm   :     0.0049421 α      lambda       -0.2047334E-06
   maximum displ.:     0.0030806 α      in ANC's #3, #1, #7, ...

........................................................................
.............................. CYCLE   49 ..............................
........................................................................

 iter      E             dE          RMSdq      gap      omega  full diag
   1    -32.0779478 -0.320779E+02  0.275E-03    3.64       0.0  T
   2    -32.0779478 -0.470547E-08  0.141E-03    3.64      13.9  T
   3    -32.0779478 -0.484626E-09  0.343E-04    3.64      57.2  T
   4    -32.0779478  0.235737E-09  0.132E-04    3.64     148.5  T
   5    -32.0779478 -0.392852E-09  0.203E-05    3.64     963.8  T
   6    -32.0779478  0.127898E-12  0.135E-05    3.64    1452.9  T
   7    -32.0779478 -0.143530E-11  0.494E-06    3.64    3969.5  T
   8    -32.0779478 -0.284217E-13  0.147E-06    3.64   13354.2  T
[...]

           ------------------------------------------------- 
          |                Numerical Hessian                |
           ------------------------------------------------- 
step length          :   0.00500
SCC accuracy         :   0.30000
Hessian scale factor :   1.00000
frozen atoms in %    :   0.00000    0
RMS gradient         :   0.00001
estimated CPU  time      1.12 min
estimated wall time      0.13 min

writing file <hessian>.

 projected vibrational frequencies (cm⁻¹)
eigval :       -0.00    -0.00    -0.00     0.00     0.00     0.00
eigval :       17.87    50.26    64.98   121.07   122.34   164.24
eigval :      199.49   213.93   232.44   295.26   318.02   320.86
eigval :      363.62   401.32   450.36   586.08   657.50   668.70
eigval :      687.39   704.79   735.14   753.35   780.19   875.00
eigval :      899.15   926.85   932.97   969.37   975.73   998.51
eigval :     1003.56  1020.03  1062.83  1082.80  1085.11  1116.95
eigval :     1121.52  1181.70  1198.85  1217.01  1229.73  1244.56
eigval :     1255.26  1278.93  1315.80  1410.37  1411.07  1423.54
eigval :     1442.59  1449.90  1458.04  1497.21  1497.29  1501.64
eigval :     1501.85  1580.00  1589.61  2931.56  2936.89  2944.80
eigval :     2951.22  3013.89  3014.38  3019.41  3019.50  3029.52
eigval :     3030.62  3061.33  3063.70  3070.74  3076.96  3087.70
           -------------------------------------------------
          |                Property Printout                |
           -------------------------------------------------

    * Orbital Energies and Occupations

         #    Occupation            Energy/Eh            Energy/eV
      -------------------------------------------------------------
         1        2.0000           -0.6581207             -17.9084
       ...           ...                  ...                  ...
        18        2.0000           -0.4773497             -12.9893
        19        2.0000           -0.4746512             -12.9159
        20        2.0000           -0.4704138             -12.8006
        21        2.0000           -0.4563299             -12.4174
        22        2.0000           -0.4561869             -12.4135
        23        2.0000           -0.4422946             -12.0354
        24        2.0000           -0.4364971             -11.8777
        25        2.0000           -0.4232557             -11.5174
        26        2.0000           -0.4194648             -11.4142
        27        2.0000           -0.4052712             -11.0280
        28        2.0000           -0.4045257             -11.0077
        29        2.0000           -0.3970022             -10.8030
        30        2.0000           -0.3672909              -9.9945 (HOMO)
        31                         -0.2336384              -6.3576 (LUMO)
        32                         -0.2230323              -6.0690
        33                         -0.1548878              -4.2147
        34                         -0.1507407              -4.1019
        35                         -0.0928028              -2.5253
        36                          0.0045556               0.1240
        37                          0.0549339               1.4948
        38                          0.0923776               2.5137
        39                          0.1108307               3.0159
        40                          0.1352068               3.6792
        41                          0.1375360               3.7425
       ...                                ...                  ...
        64                          0.7794370              21.2096
      -------------------------------------------------------------
                  HL-Gap            0.1336526 Eh            3.6369 eV
             Fermi-level           -0.3004647 Eh           -8.1761 eV

     #   Z          covCN         q      C6AA      α(0)
     1  15 P        3.056    -0.118   165.593    23.117
     2   6 C        3.748    -0.047    21.475     6.610
     3   1 H        0.926     0.038     2.469     2.457
     4   1 H        0.925     0.042     2.420     2.433
     5   6 C        3.821    -0.096    22.316     6.723
     6   1 H        0.925     0.042     2.429     2.437
     7   1 H        0.925     0.036     2.501     2.473
     8   1 H        0.925     0.033     2.546     2.495
     9   6 C        2.916     0.011    27.768     8.641
    10   6 C        3.016    -0.030    28.728     8.792
    11   6 C        2.961    -0.027    28.681     8.784
    12   6 C        2.918    -0.030    28.749     8.793
    13   6 C        2.919    -0.031    28.784     8.798
    14   6 C        2.920    -0.029    28.734     8.790
    15   1 H        0.925     0.040     2.451     2.448
    16   1 H        0.926     0.032     2.564     2.504
    17   1 H        0.926     0.030     2.588     2.516
    18   1 H        0.926     0.028     2.619     2.531
    19   1 H        0.926     0.029     2.603     2.523
    20   6 C        3.748    -0.047    21.475     6.610
    21   1 H        0.925     0.042     2.418     2.432
    22   1 H        0.926     0.039     2.468     2.457
    23   6 C        3.821    -0.096    22.317     6.723
    24   1 H        0.925     0.036     2.501     2.473
    25   1 H        0.925     0.042     2.428     2.437
    26   1 H        0.925     0.033     2.546     2.495

 Mol. C6AA /au·bohr⁶  :       7598.913328
 Mol. C8AA /au·bohr⁸  :     202574.201875
 Mol. α(0) /au        :        139.490005


Wiberg/Mayer (AO) data.
largest (>0.10) Wiberg bond orders for each atom

 ---------------------------------------------------------------------------
     #   Z sym  total        # sym  WBO       # sym  WBO       # sym  WBO
 ---------------------------------------------------------------------------
     1  15 P    3.349 --     2 C    1.025    20 C    1.024     9 C    1.007
     2   6 C    3.993 --     1 P    1.025     5 C    1.017     3 H    0.958
                             4 H    0.951
     3   1 H    0.998 --     2 C    0.958
     4   1 H    0.998 --     2 C    0.951
     5   6 C    3.995 --     2 C    1.017     6 H    0.985     8 H    0.985
                             7 H    0.984
     6   1 H    0.998 --     5 C    0.985
     7   1 H    0.999 --     5 C    0.984
     8   1 H    0.999 --     5 C    0.985
     9   6 C    3.983 --    10 C    1.408    11 C    1.400     1 P    1.007
                            14 C    0.108
    10   6 C    3.992 --    12 C    1.443     9 C    1.408    15 H    0.964
                            13 C    0.108
    11   6 C    3.993 --    13 C    1.450     9 C    1.400    16 H    0.961
                            12 C    0.111
    12   6 C    3.992 --    10 C    1.443    14 C    1.441    17 H    0.970
                            11 C    0.111
    13   6 C    3.993 --    11 C    1.450    14 C    1.432    18 H    0.970
                            10 C    0.108
    14   6 C    3.985 --    12 C    1.441    13 C    1.432    19 H    0.971
                             9 C    0.108
    15   1 H    0.998 --    10 C    0.964
    16   1 H    0.999 --    11 C    0.961
    17   1 H    0.999 --    12 C    0.970
    18   1 H    0.999 --    13 C    0.970
    19   1 H    0.999 --    14 C    0.971
    20   6 C    3.993 --     1 P    1.024    23 C    1.017    22 H    0.958
                            21 H    0.951
    21   1 H    0.998 --    20 C    0.951
    22   1 H    0.998 --    20 C    0.958
    23   6 C    3.995 --    20 C    1.017    25 H    0.985    26 H    0.984
                            24 H    0.984
    24   1 H    0.999 --    23 C    0.984
    25   1 H    0.998 --    23 C    0.985
    26   1 H    0.999 --    23 C    0.984
 ---------------------------------------------------------------------------

Topologies differ in total number of bonds
Writing topology from bond orders to xtbtopo.mol

molecular dipole:
                 x           y           z       tot (Debye)
 q only:        0.133       0.158      -0.120
   full:        0.463       0.363      -0.258       1.633
molecular quadrupole (traceless):
                xx          xy          yy          xz          yz          zz
 q only:       -0.403       0.549      -0.840      -1.598      -1.733       1.243
  q+dip:        3.847       1.842      -3.835      -4.369      -7.003      -0.012
   full:        1.898       0.921      -3.185      -4.242      -4.406       1.287

           -------------------------------------------------
          |                Geometry Summary                 |
           -------------------------------------------------

      molecular mass/u    :      166.2002322
   center of mass at/Å    :        2.9948617      -0.3369289      -2.5376245
  moments of inertia/u·Å² :        0.4041426E+03   0.6828073E+03   0.8626772E+03
rotational constants/cm⁻¹ :        0.4171209E-01   0.2468871E-01   0.1954107E-01

 * 25 selected distances

     #   Z          #   Z                                           value/Å
     1  15 P        2   6 C                                       1.8664187
     2   6 C        3   1 H                                       1.0939921
     2   6 C        4   1 H                                       1.0930880
     2   6 C        5   6 C                                       1.5223448
     5   6 C        6   1 H                                       1.0882691
     5   6 C        7   1 H                                       1.0890125
     5   6 C        8   1 H                                       1.0888090
     9   6 C       10   6 C                                       1.3904521
     9   6 C       11   6 C                                       1.3900367
    10   6 C       12   6 C                                       1.3834009
    11   6 C       13   6 C                                       1.3826035
    12   6 C       14   6 C                                       1.3842122
    13   6 C       14   6 C                                       1.3854405
    10   6 C       15   1 H                                       1.0813758
    11   6 C       16   1 H                                       1.0809982
    12   6 C       17   1 H                                       1.0805205
    13   6 C       18   1 H                                       1.0810006
    14   6 C       19   1 H                                       1.0803301 (min)
     1  15 P       20   6 C                                       1.8665270 (max)
    20   6 C       21   1 H                                       1.0931622
    20   6 C       22   1 H                                       1.0939228
    20   6 C       23   6 C                                       1.5223442
    23   6 C       24   1 H                                       1.0890268
    23   6 C       25   1 H                                       1.0882562
    23   6 C       26   1 H                                       1.0888032

 * 3 distinct bonds (by element types)

   Z      Z             #   av. dist./Å        max./Å        min./Å
   1 H    6 C          15     1.0873711     1.0939921     1.0803301
   6 C    6 C           8     1.4201044     1.5223448     1.3826035
   6 C   15 P           2     1.8664729     1.8665270     1.8664187

           -------------------------------------------------
          |               Frequency Printout                |
           -------------------------------------------------
 projected vibrational frequencies (cm⁻¹)
eigval :       -0.00    -0.00    -0.00     0.00     0.00     0.00
eigval :       17.87    50.26    64.98   121.07   122.34   164.24
eigval :      199.49   213.93   232.44   295.26   318.02   320.86
eigval :      363.62   401.32   450.36   586.08   657.50   668.70
eigval :      687.39   704.79   735.14   753.35   780.19   875.00
eigval :      899.15   926.85   932.97   969.37   975.73   998.51
eigval :     1003.56  1020.03  1062.83  1082.80  1085.11  1116.95
eigval :     1121.52  1181.70  1198.85  1217.01  1229.73  1244.56
eigval :     1255.26  1278.93  1315.80  1410.37  1411.07  1423.54
eigval :     1442.59  1449.90  1458.04  1497.21  1497.29  1501.64
eigval :     1501.85  1580.00  1589.61  2931.56  2936.89  2944.80
eigval :     2951.22  3013.89  3014.38  3019.41  3019.50  3029.52
eigval :     3030.62  3061.33  3063.70  3070.74  3076.96  3087.70
 reduced masses (amu)
   1: 14.82   2: 13.29   3: 11.31   4: 14.57   5: 11.61   6: 11.98   7:  9.54   8:  9.92
   9:  8.93  10:  7.11  11: 10.86  12:  6.88  13:  5.91  14:  5.28  15:  6.34  16: 10.38
  17: 12.96  18: 13.91  19:  8.83  20: 20.93  21: 10.12  22: 11.18  23: 10.31  24: 12.37
  25: 16.42  26: 16.18  27:  2.77  28:  4.03  29:  4.81  30:  3.30  31:  3.54  32:  4.19
  33:  3.01  34: 11.09  35:  2.23  36:  3.66  37:  2.97  38:  4.29  39:  9.72  40:  7.85
  41:  9.40  42:  7.70  43:  5.33  44:  1.33  45:  1.92  46:  3.62  47:  3.38  48:  4.54
  49:  4.27  50:  3.43  51: 11.95  52:  2.91  53:  2.96  54:  8.58  55:  2.03  56:  2.68
  57:  7.77  58:  1.52  59:  1.52  60:  1.56  61:  1.56  62: 11.45  63: 11.46  64:  1.95
  65:  1.96  66:  1.53  67:  1.50  68:  1.92  69:  1.92  70:  1.80  71:  1.80  72:  1.43
  73:  1.43  74:  1.76  75:  1.79  76:  1.82  77:  1.86  78:  1.91
 IR intensities (km·mol⁻¹)
   1:  0.07   2:  0.08   3:  0.07   4:  0.03   5:  0.12   6:  0.13   7:  0.08   8:  0.06
   9:  0.01  10:  0.10  11:  0.23  12:  0.39  13:  0.23  14:  0.08  15:  0.55  16:  0.17
  17:  0.26  18:  0.10  19:  0.00  20:  6.24  21:  2.24  22:  0.13  23:  0.39  24:  7.27
  25: 36.66  26: 28.62  27: 17.88  28:  0.11  29: 36.45  30:  0.01  31:  0.01  32:  0.02
  33:  0.00  34:  1.06  35:  4.20  36:  3.26  37:  2.59  38:  0.25  39:  6.57  40:  0.25
  41:  0.38  42:  5.27  43:  3.32  44:  0.02  45:  0.66  46:  0.55  47:  3.76  48:  6.37
  49:  7.52  50:  2.01  51:  0.90  52:  3.87  53:  0.14  54:  2.02  55:  0.23  56:  0.53
  57:  0.62  58:  0.12  59:  5.50  60:  0.55  61:  1.65  62:  0.77  63:  0.39  64:  1.39
  65: 46.40  66:  3.77  67: 40.90  68: 51.75  69: 54.08  70: 46.24  71: 13.53  72: 10.58
  73: 21.96  74:  9.81  75:  8.41  76: 12.10  77: 83.53  78: 62.45
 Raman intensities (Ä⁴*amu⁻¹)
   1:  0.00   2:  0.00   3:  0.00   4:  0.00   5:  0.00   6:  0.00   7:  0.00   8:  0.00
   9:  0.00  10:  0.00  11:  0.00  12:  0.00  13:  0.00  14:  0.00  15:  0.00  16:  0.00
  17:  0.00  18:  0.00  19:  0.00  20:  0.00  21:  0.00  22:  0.00  23:  0.00  24:  0.00
  25:  0.00  26:  0.00  27:  0.00  28:  0.00  29:  0.00  30:  0.00  31:  0.00  32:  0.00
  33:  0.00  34:  0.00  35:  0.00  36:  0.00  37:  0.00  38:  0.00  39:  0.00  40:  0.00
  41:  0.00  42:  0.00  43:  0.00  44:  0.00  45:  0.00  46:  0.00  47:  0.00  48:  0.00
  49:  0.00  50:  0.00  51:  0.00  52:  0.00  53:  0.00  54:  0.00  55:  0.00  56:  0.00
  57:  0.00  58:  0.00  59:  0.00  60:  0.00  61:  0.00  62:  0.00  63:  0.00  64:  0.00
  65:  0.00  66:  0.00  67:  0.00  68:  0.00  69:  0.00  70:  0.00  71:  0.00  72:  0.00
  73:  0.00  74:  0.00  75:  0.00  76:  0.00  77:  0.00  78:  0.00
 output can be read by thermo (or use thermo option).
 writing <g98.out> molden fake output.
 recommended (thermochemical) frequency scaling factor: 1.0
           -------------------------------------------------
          |             Thermodynamic Functions             |
           -------------------------------------------------

Refinement of some symmetry elements was terminated before convergence was reached.
Some symmetry elements may remain unidentified.
Molecule has no symmetry elements
It seems to be the C1 point group
c1  symmetry found (for desy threshold:  0.10E+00) used in thermo

          ...................................................
          :                      SETUP                      :
          :.................................................:
          :  # frequencies                          72      :
          :  # imaginary freq.                       0      :
          :  linear?                             false      :
          :  only rotor calc.                    false      :
          :  symmetry                               c1      :
          :  rotational number                       1      :
          :  scaling factor                  1.0000000      :
          :  rotor cutoff                   50.0000000 cm⁻¹ :
          :  imag. cutoff                  -20.0000000 cm⁻¹ :
          :.................................................:

    mode    ω/cm⁻¹     T·S(HO)/kcal·mol⁻¹    T·S(FR)/kcal·mol⁻¹   T·S(vib)
   ------------------------------------------------------------------------
       1     17.87    -2.04462 (  1.61%)    -1.36091 ( 98.39%)    -1.37189
       2     50.26    -1.43324 ( 50.52%)    -1.05486 ( 49.48%)    -1.24601
       3     64.98    -1.28202 ( 74.04%)    -0.97880 ( 25.96%)    -1.20332
       4    121.07    -0.91926 ( 97.17%)    -0.79451 (  2.83%)    -0.91574
       5    122.34    -0.91326 ( 97.29%)    -0.79142 (  2.71%)    -0.90996
       6    164.24    -0.74551 ( 99.15%)    -0.70419 (  0.85%)    -0.74515
       7    199.49    -0.63737 ( 99.61%)    -0.64658 (  0.39%)    -0.63741
       8    213.93    -0.59926 ( 99.70%)    -0.62590 (  0.30%)    -0.59934
       9    232.44    -0.55456 ( 99.79%)    -0.60130 (  0.21%)    -0.55466
      10    295.26    -0.43042 ( 99.92%)    -0.53045 (  0.08%)    -0.43050
   ------------------------------------------------------------------------

   temp. (K)  partition function   enthalpy   heat capacity  entropy
                                   cal/mol     cal/K/mol   cal/K/mol   J/K/mol
 298.15  VIB  0.381E+05             6235.715     39.141     38.707
         ROT  0.118E+07              888.752      2.981     30.763
         INT  0.449E+11             7124.467     42.122     69.470
         TR   0.207E+28             1481.254      4.968     41.214
         TOT                        8605.7209    47.0905   110.6834   463.0993

       T/K    H(0)-H(T)+PV         H(T)/Eh          T*S/Eh         G(T)/Eh
   ------------------------------------------------------------------------
    298.15    0.137141E-01    0.232229E+00    0.525892E-01    0.179639E+00
   ------------------------------------------------------------------------

         :::::::::::::::::::::::::::::::::::::::::::::::::::::
         ::                  THERMODYNAMIC                  ::
         :::::::::::::::::::::::::::::::::::::::::::::::::::::
         :: total free energy         -31.377382214734 Eh   ::
         ::.................................................::
         :: total energy              -31.557021486104 Eh   ::
         :: zero point energy           0.218514427847 Eh   ::
         :: G(RRHO) w/o ZPVE           -0.038875156477 Eh   ::
         :: G(RRHO) contrib.            0.179639271370 Eh   ::
         :::::::::::::::::::::::::::::::::::::::::::::::::::::

optimized geometry written to: xtbopt.xyz


           -------------------------------------------------
          | TOTAL ENERGY              -31.557021486104 Eh   |
          | TOTAL ENTHALPY            -31.324792969033 Eh   |
          | TOTAL FREE ENERGY         -31.377382214734 Eh   |
          | GRADIENT NORM               0.000011829996 Eh/α |
          | HOMO-LUMO GAP               3.636871499588 eV   |
           -------------------------------------------------

------------------------------------------------------------------------
 * finished run on 2025/07/14 at 11:26:12.211     
------------------------------------------------------------------------
 total:
 * wall-time:     0 d,  0 h,  0 min,  8.087 sec
 *  cpu-time:     0 d,  0 h,  1 min, 24.033 sec
 * ratio c/w:    10.392 speedup
 SCF:
 * wall-time:     0 d,  0 h,  0 min,  0.086 sec
 *  cpu-time:     0 d,  0 h,  0 min,  1.014 sec
 * ratio c/w:    11.770 speedup
 ANC optimizer:
 * wall-time:     0 d,  0 h,  0 min,  4.717 sec
 *  cpu-time:     0 d,  0 h,  0 min, 56.433 sec
 * ratio c/w:    11.965 speedup
 analytical hessian:
 * wall-time:     0 d,  0 h,  0 min,  3.272 sec
 *  cpu-time:     0 d,  0 h,  0 min, 26.471 sec
 * ratio c/w:     8.091 speedup

