      -----------------------------------------------------------      
     |                   =====================                   |     
     |                           x T B                           |     
     |                   =====================                   |     
     |                         S. Grimme                         |     
     |          Mulliken Center for Theoretical Chemistry        |     
     |                    University of Bonn                     |     
      -----------------------------------------------------------      

   * xtb version 6.7.0 (08769fc) compiled by 'albert@albert-system' on 2024-03-04

   xtb is free software: you can redistribute it and/or modify it under
   the terms of the GNU Lesser General Public License as published by
   the Free Software Foundation, either version 3 of the License, or
   (at your option) any later version.
   
   xtb is distributed in the hope that it will be useful,
   but WITHOUT ANY WARRANTY; without even the implied warranty of
   MERCHANTABILITY or FITNESS FOR A PARTICULAR PURPOSE.  See the
   GNU Lesser General Public License for more details.
   
   Cite this work as:
   * C. Bannwarth, E. Caldeweyher, S. Ehlert, A. Hansen, P. Pracht,
     J. Seibert, S. Spicher, S. Grimme, WIREs Comput. Mol. Sci., 2020, 11,
     e01493. DOI: 10.1002/wcms.1493
   
   for GFN2-xTB:
   * C. Bannwarth, S. Ehlert and S. Grimme., J. Chem. Theory Comput., 2019,
     15, 1652-1671. DOI: 10.1021/acs.jctc.8b01176
   for GFN1-xTB:
   * S. Grimme, C. Bannwarth, P. Shushkov, J. Chem. Theory Comput., 2017,
     13, 1989-2009. DOI: 10.1021/acs.jctc.7b00118
   for GFN0-xTB:
   * P. Pracht, E. Caldeweyher, S. Ehlert, S. Grimme, ChemRxiv, 2019, preprint.
     DOI: 10.26434/chemrxiv.8326202.v1
   for GFN-FF:
   * S. Spicher and S. Grimme, Angew. Chem. Int. Ed., 2020, 59, 15665-15673.
     DOI: 10.1002/anie.202004239
   
   for ALPB and GBSA implicit solvation:
   * S. Ehlert, M. Stahn, S. Spicher, S. Grimme, J. Chem. Theory Comput.,
     2021, 17, 4250-4261. DOI: 10.1021/acs.jctc.1c00471
   
   for ddCOSMO and CPCM-X implicit solvation:
   * M. Stahn, S. Ehlert, S. Grimme, J. Phys. Chem. A,
     2023, XX, XXXX-XXXX. DOI: 10.1021/acs.jpca.3c04382
   
   for DFT-D4:
   * E. Caldeweyher, C. Bannwarth and S. Grimme, J. Chem. Phys., 2017,
     147, 034112. DOI: 10.1063/1.4993215
   * E. Caldeweyher, S. Ehlert, A. Hansen, H. Neugebauer, S. Spicher,
     C. Bannwarth and S. Grimme, J. Chem. Phys., 2019, 150, 154122.
     DOI: 10.1063/1.5090222
   * E. Caldeweyher, J.-M. Mewes, S. Ehlert and S. Grimme, Phys. Chem. Chem. Phys.
     2020, 22, 8499-8512. DOI: 10.1039/D0CP00502A
   
   for sTDA-xTB:
   * S. Grimme and C. Bannwarth, J. Chem. Phys., 2016, 145, 054103.
     DOI: 10.1063/1.4959605
   
   in the mass-spec context:
   * V. Asgeirsson, C. Bauer and S. Grimme, Chem. Sci., 2017, 8, 4879.
     DOI: 10.1039/c7sc00601b
   * J. Koopman and S. Grimme, ACS Omega 2019, 4, 12, 15120-15133.
     DOI: 10.1021/acsomega.9b02011
   
   for metadynamics refer to:
   * S. Grimme, J. Chem. Theory Comput., 2019, 155, 2847-2862
     DOI: 10.1021/acs.jctc.9b00143
   
   for SPH calculations refer to:
   * S. Spicher and S. Grimme, J. Chem. Theory Comput., 2021, 17, 1701-1714
     DOI: 10.1021/acs.jctc.0c01306
   
   for ONIOM refer to:
   * C. Plett, A. Katbashev, S. Ehlert, S. Grimme, M. Bursch,
     Phys. Chem. Chem. Phys., 2023, 25, 17860-17868. DOI: 10.1039/D3CP02178E
   
   for DIPRO refer to:
   * J. Kohn, N. Gildemeister, S. Grimme, D. Fazzi, A. Hansen,
     J. Chem. Phys., 2023, just accepted.
   
   for PTB refer to:
   * S. Grimme, M. Mueller, A. Hansen, J. Chem. Phys., 2023, 158, 124111.
     DOI: 10.1063/5.0137838
   
   with help from (in alphabetical order)
   P. Atkinson, C. Bannwarth, F. Bohle, G. Brandenburg, E. Caldeweyher
   M. Checinski, S. Dohm, S. Ehlert, S. Ehrlich, I. Gerasimov, C. Hölzer
   A. Katbashev, J. Kohn, J. Koopman, C. Lavigne, S. Lehtola, F. März, M. Müller,
   F. Musil, H. Neugebauer, J. Pisarek, C. Plett, P. Pracht, F. Pultar,
   J. Seibert, P. Shushkov, S. Spicher, M. Stahn, M. Steiner, T. Strunk,
   J. Stückrath, T. Rose, and J. Unsleber
   
 * started run on 2025/07/14 at 11:31:05.427     
   ID    Z sym.   atoms
    1   15 P      1
    2    6 C      2, 5, 9-14, 20, 23
    3    1 H      3, 4, 6-8, 15-19, 21, 22, 24-26

           -------------------------------------------------
          |                Calculation Setup                |
           -------------------------------------------------

          program call               : /home/minenky/programs/xtb/xtb-dist/bin/xtb m1_00_PEt2Ph-PBE0-D3-TZ-uniMM_37.xyz --charge 0 --T --ohess extreme --cycles 5000 --acc 0.01 --iterations 5000
          coordinate file            : m1_00_PEt2Ph-PBE0-D3-TZ-uniMM_37.xyz
          omp threads                :                    12

########################################################################
[WARNING] Please study the warnings concerning your input carefully
-1- prog_main_parseArguments: Unknown option '--T' provided
########################################################################

           -------------------------------------------------
          |                 G F N 2 - x T B                 |
           -------------------------------------------------

        Reference                      10.1021/acs.jctc.8b01176
      * Hamiltonian:
        H0-scaling (s, p, d)           1.850000    2.230000    2.230000
        zeta-weighting                 0.500000
      * Dispersion:
        s8                             2.700000
        a1                             0.520000
        a2                             5.000000
        s9                             5.000000
      * Repulsion:
        kExp                           1.500000    1.000000
        rExp                           1.000000
      * Coulomb:
        alpha                          2.000000
        third order                    shell-resolved
        anisotropic                    true
        a3                             3.000000
        a5                             4.000000
        cn-shift                       1.200000
        cn-exp                         4.000000
        max-rad                        5.000000


          ...................................................
          :                      SETUP                      :
          :.................................................:
          :  # basis functions                  65          :
          :  # atomic orbitals                  64          :
          :  # shells                           38          :
          :  # electrons                        60          :
          :  max. iterations                  5000          :
          :  Hamiltonian                  GFN2-xTB          :
          :  restarted?                      false          :
          :  GBSA solvation                  false          :
          :  PC potential                    false          :
          :  electronic temp.          300.0000000     K    :
          :  accuracy                    0.0100000          :
          :  -> integral cutoff          0.4500000E+02      :
          :  -> integral neglect         0.1000000E-09      :
          :  -> SCF convergence          0.1000000E-07 Eh   :
          :  -> wf. convergence          0.1000000E-05 e    :
          :  Broyden damping             0.4000000          :
          :  net charge                          0          :
          :  unpaired electrons                  0          :
          ...................................................

 iter      E             dE          RMSdq      gap      omega  full diag
   1    -32.0073811 -0.320074E+02  0.383E+00    3.90       0.0  T
   2    -32.0514282 -0.440471E-01  0.233E+00    3.37       1.0  T
   3    -32.0508356  0.592630E-03  0.903E-01    3.06       1.0  T
   4    -32.0521013 -0.126569E-02  0.303E-01    3.08       1.0  T
   5    -32.0537136 -0.161232E-02  0.122E-01    3.13       1.0  T
   6    -32.0539424 -0.228771E-03  0.419E-02    3.12       1.0  T
   7    -32.0539541 -0.116983E-04  0.178E-02    3.13       1.1  T
   8    -32.0539546 -0.531212E-06  0.728E-03    3.13       2.7  T
   9    -32.0539552 -0.559721E-06  0.167E-03    3.13      11.7  T
  10    -32.0539552 -0.403515E-07  0.656E-04    3.13      29.9  T
  11    -32.0539552 -0.663427E-09  0.299E-04    3.13      65.5  T
  12    -32.0539552 -0.457540E-09  0.579E-05    3.13     338.6  T
  13    -32.0539552 -0.129248E-10  0.293E-05    3.13     670.4  T
  14    -32.0539552 -0.225242E-11  0.968E-06    3.13    2026.5  T
  15    -32.0539552 -0.468958E-12  0.384E-06    3.13    5106.7  T

   *** convergence criteria satisfied after 15 iterations ***

         #    Occupation            Energy/Eh            Energy/eV
      -------------------------------------------------------------
         1        2.0000           -0.6600498             -17.9609
       ...           ...                  ...                  ...
        24        2.0000           -0.4336691             -11.8007
        25        2.0000           -0.4241927             -11.5429
        26        2.0000           -0.4228819             -11.5072
        27        2.0000           -0.4096067             -11.1460
        28        2.0000           -0.4042765             -11.0009
        29        2.0000           -0.3983357             -10.8393
        30        2.0000           -0.3506935              -9.5429 (HOMO)
        31                         -0.2357107              -6.4140 (LUMO)
        32                         -0.2242983              -6.1035
        33                         -0.1505318              -4.0962
        34                         -0.1346979              -3.6653
        35                         -0.0892295              -2.4281
       ...                                ...                  ...
        64                          0.7739528              21.0603
      -------------------------------------------------------------
                  HL-Gap            0.1149829 Eh            3.1288 eV
             Fermi-level           -0.2932021 Eh           -7.9784 eV

 SCC (total)                   0 d,  0 h,  0 min,  0.088 sec
 SCC setup                      ...        0 min,  0.000 sec (  0.142%)
 Dispersion                     ...        0 min,  0.000 sec (  0.139%)
 classical contributions        ...        0 min,  0.000 sec (  0.011%)
 integral evaluation            ...        0 min,  0.002 sec (  2.094%)
 iterations                     ...        0 min,  0.084 sec ( 95.507%)
 molecular gradient             ...        0 min,  0.002 sec (  1.999%)
 printout                       ...        0 min,  0.000 sec (  0.088%)

         :::::::::::::::::::::::::::::::::::::::::::::::::::::
         ::                     SUMMARY                     ::
         :::::::::::::::::::::::::::::::::::::::::::::::::::::
         :: total energy             -31.538953381260 Eh    ::
         :: gradient norm              0.059617459004 Eh/a0 ::
         :: HOMO-LUMO gap              3.128842949794 eV    ::
         ::.................................................::
         :: SCC energy               -32.053733441635 Eh    ::
         :: -> isotropic ES            0.004170499997 Eh    ::
         :: -> anisotropic ES          0.006609218715 Eh    ::
         :: -> anisotropic XC          0.022696637937 Eh    ::
         :: -> dispersion             -0.024044698712 Eh    ::
         :: repulsion energy           0.514780060375 Eh    ::
         :: add. restraining           0.000000000000 Eh    ::
         :: total charge               0.000000000000 e     ::
         :::::::::::::::::::::::::::::::::::::::::::::::::::::

      ----------------------------------------------------------- 
     |                   =====================                   |
     |                        A N C O P T                        |
     |                   =====================                   |
     |               Approximate Normal Coordinate               |
     |                Rational Function Optimizer                |
      ----------------------------------------------------------- 
      ----------------------------------------------------------- 
     |                   =====================                   |
     |                        A N C O P T                        |
     |                   =====================                   |
     |               Approximate Normal Coordinate               |
     |                Rational Function Optimizer                |
      ----------------------------------------------------------- 

          ...................................................
          :                      SETUP                      :
          :.................................................:
          :   optimization level           extreme          :
          :   max. optcycles                  5000          :
          :   ANC micro-cycles                  20          :
          :   degrees of freedom                72          :
          :.................................................:
          :   RF solver                   davidson          :
          :   write xtbopt.log                true          :
          :   linear?                        false          :
          :   energy convergence         0.5000000E-07 Eh   :
          :   grad. convergence          0.5000000E-04 Eh/α :
          :   maxmium RF displ.          1.0000000          :
          :   Hlow (freq-cutoff)         0.1000000E-01      :
          :   Hmax (freq-cutoff)         5.0000000          :
          :   S6 in model hess.         20.0000000          :
          ...................................................

generating ANC from model Hessian ...
Using Lindh-Hessian (1995)
 Shifting diagonal of input Hessian by   1.192197654385853E-002
 Lowest  eigenvalues of input Hessian
    0.010000    0.000000    0.000000    0.000000    0.000000    0.000000
    0.000000    0.012805    0.012826    0.013460    0.014281    0.015222
    0.017875    0.019945    0.021565    0.022037    0.024796    0.026576
 Highest eigenvalues
    1.349673    1.537209    1.564654    1.866235    1.968248    1.988459
 

........................................................................
.............................. CYCLE    1 ..............................
........................................................................

 iter      E             dE          RMSdq      gap      omega  full diag
   1    -32.0539552 -0.320540E+02  0.113E-06    3.13       0.0  T
   2    -32.0539552  0.710543E-14  0.657E-07    3.13   29872.3  T
   3    -32.0539552  0.142109E-13  0.419E-07    3.13   46837.7  T
     SCC iter.                  ...        0 min,  0.073 sec
     gradient                   ...        0 min,  0.002 sec
 * total energy  :   -31.5389534 Eh     change       -0.1776357E-12 Eh
   gradient norm :     0.0596175 Eh/α   predicted     0.0000000E+00 (-100.00%)
   displ. norm   :     0.4760506 α      lambda       -0.1563460E-01
   maximum displ.:     0.3242413 α      in ANC's #1, #13, #5, ...

........................................................................
.............................. CYCLE    2 ..............................
........................................................................

 iter      E             dE          RMSdq      gap      omega  full diag
   1    -32.0637952 -0.320638E+02  0.513E-01    3.45       0.0  T
   2    -32.0642125 -0.417373E-03  0.219E-01    3.52       1.0  T
   3    -32.0642530 -0.404133E-04  0.811E-02    3.57       1.0  T
   4    -32.0642532 -0.240903E-06  0.429E-02    3.56       1.0  T
   5    -32.0642634 -0.102495E-04  0.102E-02    3.57       1.9  T
   6    -32.0642653 -0.181726E-05  0.535E-03    3.57       3.7  T
   7    -32.0642654 -0.164893E-06  0.168E-03    3.57      11.7  T
   8    -32.0642654 -0.273622E-08  0.743E-04    3.57      26.4  T
   9    -32.0642654 -0.682383E-08  0.218E-04    3.57      90.0  T
  10    -32.0642654 -0.340620E-09  0.819E-05    3.57     239.6  T
  11    -32.0642654 -0.195897E-10  0.289E-05    3.57     679.7  T
  12    -32.0642654 -0.570566E-11  0.115E-05    3.57    1703.7  T
  13    -32.0642654 -0.433431E-12  0.455E-06    3.57    4308.7  T
  14    -32.0642654 -0.710543E-13  0.140E-06    3.57   14009.0  T
     SCC iter.                  ...        0 min,  0.075 sec
     gradient                   ...        0 min,  0.002 sec
 * total energy  :   -31.5477416 Eh     change       -0.8788265E-02 Eh
   gradient norm :     0.0178580 Eh/α   predicted    -0.9589127E-02 (   9.11%)
   displ. norm   :     0.3988379 α      lambda       -0.2892616E-02
   maximum displ.:     0.3284434 α      in ANC's #1, #5, #8, ...

........................................................................
.............................. CYCLE    3 ..............................
........................................................................

 iter      E             dE          RMSdq      gap      omega  full diag
   1    -32.0679660 -0.320680E+02  0.118E-01    3.56       0.0  T
   2    -32.0679736 -0.754531E-05  0.681E-02    3.56       1.0  T
   3    -32.0679731  0.453065E-06  0.165E-02    3.55       1.2  T
   4    -32.0679743 -0.119571E-05  0.467E-03    3.55       4.2  T
   5    -32.0679744 -0.134092E-06  0.211E-03    3.55       9.3  T
   6    -32.0679745 -0.566814E-07  0.122E-03    3.55      16.0  T
   7    -32.0679745 -0.432111E-08  0.445E-04    3.55      44.1  T
   8    -32.0679745 -0.940695E-09  0.106E-04    3.55     185.4  T
   9    -32.0679745 -0.636362E-10  0.578E-05    3.55     339.1  T
  10    -32.0679745 -0.275477E-10  0.157E-05    3.55    1250.1  T
  11    -32.0679745 -0.923706E-12  0.622E-06    3.55    3152.0  T
  12    -32.0679745 -0.284217E-12  0.314E-06    3.55    6240.8  T
     SCC iter.                  ...        0 min,  0.074 sec
     gradient                   ...        0 min,  0.002 sec
 * total energy  :   -31.5498528 Eh     change       -0.2111130E-02 Eh
   gradient norm :     0.0090162 Eh/α   predicted    -0.1676375E-02 ( -20.59%)
   displ. norm   :     0.4182383 α      lambda       -0.1762969E-02
   maximum displ.:     0.2735592 α      in ANC's #1, #8, #5, ...

........................................................................
.............................. CYCLE    4 ..............................
........................................................................

 iter      E             dE          RMSdq      gap      omega  full diag
   1    -32.0692454 -0.320692E+02  0.111E-01    3.57       0.0  T
   2    -32.0692503 -0.486734E-05  0.656E-02    3.57       1.0  T
   3    -32.0692490  0.132583E-05  0.153E-02    3.58       1.3  T
   4    -32.0692508 -0.183102E-05  0.652E-03    3.58       3.0  T
   5    -32.0692511 -0.301975E-06  0.246E-03    3.57       8.0  T
   6    -32.0692512 -0.114472E-06  0.144E-03    3.57      13.6  T
   7    -32.0692512 -0.299018E-08  0.330E-04    3.57      59.5  T
   8    -32.0692512 -0.293383E-09  0.911E-05    3.57     215.2  T
   9    -32.0692512 -0.943459E-10  0.455E-05    3.57     431.3  T
  10    -32.0692512 -0.204139E-10  0.214E-05    3.57     915.7  T
  11    -32.0692512 -0.115108E-11  0.738E-06    3.57    2656.4  T
  12    -32.0692512 -0.127898E-12  0.260E-06    3.57    7529.3  T
     SCC iter.                  ...        0 min,  0.074 sec
     gradient                   ...        0 min,  0.002 sec
 * total energy  :   -31.5510405 Eh     change       -0.1187741E-02 Eh
   gradient norm :     0.0077566 Eh/α   predicted    -0.1035685E-02 ( -12.80%)
   displ. norm   :     0.3231897 α      lambda       -0.6886001E-03
   maximum displ.:     0.2069514 α      in ANC's #1, #8, #5, ...

........................................................................
.............................. CYCLE    5 ..............................
........................................................................

 iter      E             dE          RMSdq      gap      omega  full diag
   1    -32.0699381 -0.320699E+02  0.717E-02    3.56       0.0  T
   2    -32.0699393 -0.119524E-05  0.419E-02    3.56       1.0  T
   3    -32.0699387  0.614082E-06  0.667E-03    3.55       2.9  T
   4    -32.0699395 -0.824921E-06  0.281E-03    3.55       7.0  T
   5    -32.0699396 -0.861220E-07  0.116E-03    3.55      16.9  T
   6    -32.0699396 -0.711245E-08  0.364E-04    3.55      53.8  T
   7    -32.0699396 -0.388489E-09  0.151E-04    3.55     129.8  T
   8    -32.0699396 -0.161954E-09  0.693E-05    3.55     283.0  T
   9    -32.0699396 -0.440536E-10  0.219E-05    3.55     897.2  T
  10    -32.0699396 -0.446931E-11  0.103E-05    3.55    1907.1  T
  11    -32.0699396 -0.454747E-12  0.406E-06    3.55    4833.8  T
  12    -32.0699396 -0.497380E-13  0.133E-06    3.55   14765.0  T
     SCC iter.                  ...        0 min,  0.074 sec
     gradient                   ...        0 min,  0.002 sec
 * total energy  :   -31.5514956 Eh     change       -0.4550369E-03 Eh
   gradient norm :     0.0061545 Eh/α   predicted    -0.3802634E-03 ( -16.43%)
   displ. norm   :     0.1959572 α      lambda       -0.2409506E-03
   maximum displ.:     0.0966955 α      in ANC's #7, #1, #8, ...

........................................................................
.............................. CYCLE    6 ..............................
........................................................................

 iter      E             dE          RMSdq      gap      omega  full diag
   1    -32.0708275 -0.320708E+02  0.472E-02    3.56       0.0  T
   2    -32.0708282 -0.671877E-06  0.271E-02    3.56       1.0  T
   3    -32.0708280  0.145658E-06  0.513E-03    3.56       3.8  T
   4    -32.0708283 -0.232053E-06  0.159E-03    3.56      12.3  T
   5    -32.0708283 -0.247846E-07  0.785E-04    3.56      25.0  T
   6    -32.0708283 -0.703593E-08  0.254E-04    3.56      77.2  T
   7    -32.0708283  0.307736E-10  0.974E-05    3.56     201.4  T
   8    -32.0708283 -0.661586E-10  0.412E-05    3.56     476.1  T
   9    -32.0708283 -0.233982E-10  0.160E-05    3.56    1223.1  T
  10    -32.0708283 -0.105871E-11  0.768E-06    3.56    2554.9  T
  11    -32.0708283 -0.191847E-12  0.241E-06    3.56    8147.1  T
     SCC iter.                  ...        0 min,  0.073 sec
     gradient                   ...        0 min,  0.002 sec
 * total energy  :   -31.5516590 Eh     change       -0.1634880E-03 Eh
   gradient norm :     0.0039734 Eh/α   predicted    -0.1251111E-03 ( -23.47%)
   displ. norm   :     0.1162555 α      lambda       -0.1001350E-03
   maximum displ.:     0.0691277 α      in ANC's #7, #3, #8, ...

........................................................................
.............................. CYCLE    7 ..............................
........................................................................

 iter      E             dE          RMSdq      gap      omega  full diag
   1    -32.0718786 -0.320719E+02  0.357E-02    3.56       0.0  T
   2    -32.0718791 -0.542943E-06  0.208E-02    3.56       1.0  T
   3    -32.0718790  0.112475E-06  0.555E-03    3.56       3.5  T
   4    -32.0718792 -0.190243E-06  0.109E-03    3.56      18.0  T
   5    -32.0718792 -0.528033E-09  0.737E-04    3.56      26.6  T
   6    -32.0718792 -0.698351E-08  0.291E-04    3.56      67.3  T
   7    -32.0718792  0.213873E-11  0.693E-05    3.56     282.9  T
   8    -32.0718792 -0.823661E-10  0.243E-05    3.56     807.9  T
   9    -32.0718792 -0.299849E-11  0.118E-05    3.56    1659.9  T
  10    -32.0718792 -0.174083E-11  0.423E-06    3.56    4639.8  T
  11    -32.0718792 -0.120792E-12  0.121E-06    3.56   16257.9  T
     SCC iter.                  ...        0 min,  0.073 sec
     gradient                   ...        0 min,  0.002 sec
 * total energy  :   -31.5517255 Eh     change       -0.6644608E-04 Eh
   gradient norm :     0.0017609 Eh/α   predicted    -0.5074444E-04 ( -23.63%)
   displ. norm   :     0.1246941 α      lambda       -0.4164603E-04
   maximum displ.:     0.0907551 α      in ANC's #3, #7, #4, ...

........................................................................
.............................. CYCLE    8 ..............................
........................................................................

 iter      E             dE          RMSdq      gap      omega  full diag
   1    -32.0723803 -0.320724E+02  0.384E-02    3.56       0.0  T
   2    -32.0723807 -0.385277E-06  0.225E-02    3.56       1.0  T
   3    -32.0723805  0.178883E-06  0.547E-03    3.56       3.6  T
   4    -32.0723807 -0.251588E-06  0.111E-03    3.56      17.7  T
   5    -32.0723807 -0.851848E-09  0.653E-04    3.56      30.0  T
   6    -32.0723807 -0.606670E-08  0.279E-04    3.56      70.2  T
   7    -32.0723807 -0.993410E-10  0.645E-05    3.56     304.1  T
   8    -32.0723807 -0.585985E-10  0.179E-05    3.56    1097.5  T
   9    -32.0723807 -0.267875E-11  0.856E-06    3.56    2292.0  T
  10    -32.0723807 -0.100187E-11  0.233E-06    3.56    8402.4  T
     SCC iter.                  ...        0 min,  0.073 sec
     gradient                   ...        0 min,  0.002 sec
 * total energy  :   -31.5517639 Eh     change       -0.3837636E-04 Eh
   gradient norm :     0.0021119 Eh/α   predicted    -0.2097058E-04 ( -45.36%)
   displ. norm   :     0.0599096 α      lambda       -0.2627818E-04
   maximum displ.:     0.0429357 α      in ANC's #3, #1, #2, ...

........................................................................
.............................. CYCLE    9 ..............................
........................................................................

 iter      E             dE          RMSdq      gap      omega  full diag
   1    -32.0723509 -0.320724E+02  0.204E-02    3.56       0.0  T
   2    -32.0723509 -0.309498E-07  0.120E-02    3.56       1.6  T
   3    -32.0723509  0.145292E-07  0.153E-03    3.56      12.8  T
   4    -32.0723509 -0.229071E-07  0.364E-04    3.56      53.9  T
   5    -32.0723509 -0.101835E-09  0.213E-04    3.56      92.2  T
   6    -32.0723509 -0.753047E-09  0.942E-05    3.56     208.1  T
   7    -32.0723509 -0.308020E-10  0.209E-05    3.56     939.5  T
   8    -32.0723509 -0.123634E-11  0.971E-06    3.56    2019.3  T
   9    -32.0723509 -0.106581E-11  0.368E-06    3.56    5323.4  T
     SCC iter.                  ...        0 min,  0.073 sec
     gradient                   ...        0 min,  0.002 sec
 * total energy  :   -31.5517876 Eh     change       -0.2378165E-04 Eh
   gradient norm :     0.0018424 Eh/α   predicted    -0.1318729E-04 ( -44.55%)
   displ. norm   :     0.1954939 α      lambda       -0.5527930E-04
   maximum displ.:     0.1296367 α      in ANC's #3, #2, #4, ...

........................................................................
.............................. CYCLE   10 ..............................
........................................................................

 iter      E             dE          RMSdq      gap      omega  full diag
   1    -32.0716301 -0.320716E+02  0.710E-02    3.56       0.0  T
   2    -32.0716305 -0.459441E-06  0.413E-02    3.56       1.0  T
   3    -32.0716305  0.426407E-07  0.382E-03    3.56       5.1  T
   4    -32.0716306 -0.941157E-07  0.154E-03    3.56      12.8  T
   5    -32.0716306 -0.379057E-07  0.559E-04    3.56      35.1  T
   6    -32.0716306 -0.412481E-08  0.284E-04    3.56      69.2  T
   7    -32.0716306 -0.390294E-09  0.659E-05    3.56     297.7  T
   8    -32.0716306 -0.313918E-10  0.306E-05    3.56     641.5  T
   9    -32.0716306 -0.728306E-11  0.115E-05    3.56    1707.1  T
  10    -32.0716306 -0.603961E-12  0.414E-06    3.56    4739.6  T
  11    -32.0716306 -0.213163E-13  0.144E-06    3.56   13596.9  T
     SCC iter.                  ...        0 min,  0.073 sec
     gradient                   ...        0 min,  0.002 sec
 * total energy  :   -31.5518469 Eh     change       -0.5921536E-04 Eh
   gradient norm :     0.0017579 Eh/α   predicted    -0.2811169E-04 ( -52.53%)
   displ. norm   :     0.1762246 α      lambda       -0.3548725E-04
   maximum displ.:     0.1275415 α      in ANC's #3, #2, #4, ...

........................................................................
.............................. CYCLE   11 ..............................
........................................................................

 iter      E             dE          RMSdq      gap      omega  full diag
   1    -32.0713303 -0.320713E+02  0.658E-02    3.57       0.0  T
   2    -32.0713306 -0.294288E-06  0.382E-02    3.57       1.0  T
   3    -32.0713305  0.381148E-07  0.294E-03    3.57       6.7  T
   4    -32.0713306 -0.401507E-07  0.175E-03    3.57      11.2  T
   5    -32.0713307 -0.695385E-07  0.395E-04    3.57      49.7  T
   6    -32.0713307  0.810374E-10  0.145E-04    3.57     135.0  T
   7    -32.0713307 -0.198050E-09  0.433E-05    3.57     452.4  T
   8    -32.0713307 -0.139124E-10  0.166E-05    3.57    1181.4  T
   9    -32.0713307 -0.319744E-11  0.862E-06    3.57    2273.9  T
  10    -32.0713307 -0.362377E-12  0.173E-06    3.57   11333.7  T
     SCC iter.                  ...        0 min,  0.073 sec
     gradient                   ...        0 min,  0.002 sec
 * total energy  :   -31.5518924 Eh     change       -0.4558309E-04 Eh
   gradient norm :     0.0019126 Eh/α   predicted    -0.1799801E-04 ( -60.52%)
   displ. norm   :     0.2200465 α      lambda       -0.4415089E-04
   maximum displ.:     0.1558762 α      in ANC's #3, #2, #4, ...

........................................................................
.............................. CYCLE   12 ..............................
........................................................................

 iter      E             dE          RMSdq      gap      omega  full diag
   1    -32.0714548 -0.320715E+02  0.820E-02    3.57       0.0  T
   2    -32.0714554 -0.586345E-06  0.474E-02    3.57       1.0  T
   3    -32.0714554  0.563905E-07  0.418E-03    3.57       4.7  T
   4    -32.0714554 -0.828034E-07  0.225E-03    3.57       8.7  T
   5    -32.0714555 -0.908263E-07  0.628E-04    3.57      31.2  T
   6    -32.0714555 -0.915037E-09  0.304E-04    3.57      64.6  T
   7    -32.0714555 -0.205453E-09  0.822E-05    3.57     238.5  T
   8    -32.0714555 -0.360743E-10  0.261E-05    3.57     752.6  T
   9    -32.0714555 -0.986944E-11  0.138E-05    3.57    1420.6  T
  10    -32.0714555 -0.596856E-12  0.296E-06    3.57    6631.5  T
  11    -32.0714555  0.000000E+00  0.690E-07    3.57   28418.9  T
     SCC iter.                  ...        0 min,  0.073 sec
     gradient                   ...        0 min,  0.002 sec
 * total energy  :   -31.5519478 Eh     change       -0.5535937E-04 Eh
   gradient norm :     0.0014808 Eh/α   predicted    -0.2255318E-04 ( -59.26%)
   displ. norm   :     0.2941106 α      lambda       -0.4739751E-04
   maximum displ.:     0.2060218 α      in ANC's #3, #2, #4, ...

........................................................................
.............................. CYCLE   13 ..............................
........................................................................

 iter      E             dE          RMSdq      gap      omega  full diag
   1    -32.0713429 -0.320713E+02  0.109E-01    3.57       0.0  T
   2    -32.0713437 -0.800736E-06  0.634E-02    3.57       1.0  T
   3    -32.0713437  0.748204E-07  0.463E-03    3.57       4.2  T
   4    -32.0713438 -0.157432E-06  0.249E-03    3.57       7.9  T
   5    -32.0713439 -0.113817E-06  0.784E-04    3.57      25.0  T
   6    -32.0713439 -0.300010E-08  0.358E-04    3.57      54.8  T
   7    -32.0713439 -0.253166E-10  0.654E-05    3.57     299.7  T
   8    -32.0713439 -0.634799E-10  0.294E-05    3.57     666.9  T
   9    -32.0713439 -0.861178E-11  0.119E-05    3.57    1648.6  T
  10    -32.0713439 -0.412115E-12  0.259E-06    3.57    7581.6  T
  11    -32.0713439 -0.923706E-13  0.943E-07    3.57   20796.2  T
     SCC iter.                  ...        0 min,  0.073 sec
     gradient                   ...        0 min,  0.004 sec
 * total energy  :   -31.5520026 Eh     change       -0.5482136E-04 Eh
   gradient norm :     0.0013385 Eh/α   predicted    -0.2461087E-04 ( -55.11%)
   displ. norm   :     0.4027663 α      lambda       -0.4744154E-04
   maximum displ.:     0.2787346 α      in ANC's #3, #2, #4, ...

........................................................................
.............................. CYCLE   14 ..............................
........................................................................

 iter      E             dE          RMSdq      gap      omega  full diag
   1    -32.0707368 -0.320707E+02  0.150E-01    3.57       0.0  T
   2    -32.0707383 -0.152485E-05  0.870E-02    3.58       1.0  T
   3    -32.0707382  0.123353E-06  0.631E-03    3.58       3.1  T
   4    -32.0707385 -0.279605E-06  0.333E-03    3.58       5.9  T
   5    -32.0707387 -0.196822E-06  0.114E-03    3.58      17.2  T
   6    -32.0707387 -0.763659E-08  0.495E-04    3.58      39.6  T
   7    -32.0707387 -0.152127E-09  0.104E-04    3.58     188.5  T
   8    -32.0707387 -0.137192E-09  0.460E-05    3.58     426.6  T
   9    -32.0707387 -0.301270E-10  0.173E-05    3.58    1132.8  T
  10    -32.0707387 -0.103739E-11  0.358E-06    3.58    5474.8  T
  11    -32.0707387 -0.781597E-13  0.161E-06    3.58   12188.5  T
     SCC iter.                  ...        0 min,  0.080 sec
     gradient                   ...        0 min,  0.002 sec
 * total energy  :   -31.5520473 Eh     change       -0.4463425E-04 Eh
   gradient norm :     0.0024312 Eh/α   predicted    -0.2543185E-04 ( -43.02%)
   displ. norm   :     0.1601100 α      lambda       -0.3152106E-04
   maximum displ.:     0.1058807 α      in ANC's #3, #2, #4, ...

........................................................................
.............................. CYCLE   15 ..............................
........................................................................

 iter      E             dE          RMSdq      gap      omega  full diag
   1    -32.0716682 -0.320717E+02  0.581E-02    3.58       0.0  T
   2    -32.0716684 -0.233870E-06  0.340E-02    3.58       1.0  T
   3    -32.0716683  0.747778E-07  0.310E-03    3.58       6.3  T
   4    -32.0716684 -0.125027E-06  0.122E-03    3.58      16.0  T
   5    -32.0716685 -0.172439E-07  0.529E-04    3.58      37.1  T
   6    -32.0716685 -0.245470E-08  0.232E-04    3.58      84.6  T
   7    -32.0716685 -0.965485E-10  0.506E-05    3.58     387.3  T
   8    -32.0716685 -0.278959E-10  0.192E-05    3.58    1022.3  T
   9    -32.0716685 -0.322586E-11  0.673E-06    3.58    2915.9  T
  10    -32.0716685 -0.433431E-12  0.310E-06    3.58    6321.7  T
     SCC iter.                  ...        0 min,  0.074 sec
     gradient                   ...        0 min,  0.005 sec
 * total energy  :   -31.5520716 Eh     change       -0.2436086E-04 Eh
   gradient norm :     0.0016888 Eh/α   predicted    -0.1616634E-04 ( -33.64%)
   displ. norm   :     0.3849539 α      lambda       -0.3900408E-04
   maximum displ.:     0.2399038 α      in ANC's #3, #2, #4, ...

........................................................................
.............................. CYCLE   16 ..............................
........................................................................

 iter      E             dE          RMSdq      gap      omega  full diag
   1    -32.0721275 -0.320721E+02  0.140E-01    3.59       0.0  T
   2    -32.0721288 -0.134501E-05  0.814E-02    3.59       1.0  T
   3    -32.0721286  0.230651E-06  0.714E-03    3.59       2.7  T
   4    -32.0721291 -0.499327E-06  0.275E-03    3.59       7.1  T
   5    -32.0721291 -0.717231E-07  0.129E-03    3.59      15.2  T
   6    -32.0721292 -0.207991E-07  0.559E-04    3.59      35.1  T
   7    -32.0721292 -0.300844E-09  0.108E-04    3.59     180.9  T
   8    -32.0721292 -0.141959E-09  0.448E-05    3.59     437.4  T
   9    -32.0721292 -0.100826E-10  0.170E-05    3.59    1154.4  T
  10    -32.0721292 -0.492406E-11  0.587E-06    3.59    3338.8  T
  11    -32.0721292 -0.198952E-12  0.223E-06    3.59    8808.1  T
     SCC iter.                  ...        0 min,  0.074 sec
     gradient                   ...        0 min,  0.002 sec
 * total energy  :   -31.5521073 Eh     change       -0.3565852E-04 Eh
   gradient norm :     0.0016414 Eh/α   predicted    -0.2078921E-04 ( -41.70%)
   displ. norm   :     0.1320212 α      lambda       -0.1772031E-04
   maximum displ.:     0.0779907 α      in ANC's #2, #6, #3, ...

........................................................................
.............................. CYCLE   17 ..............................
........................................................................

 iter      E             dE          RMSdq      gap      omega  full diag
   1    -32.0732955 -0.320733E+02  0.464E-02    3.59       0.0  T
   2    -32.0732957 -0.206585E-06  0.270E-02    3.59       1.0  T
   3    -32.0732957  0.596813E-08  0.232E-03    3.59       8.5  T
   4    -32.0732958 -0.405713E-07  0.974E-04    3.59      20.1  T
   5    -32.0732958 -0.883757E-08  0.423E-04    3.59      46.3  T
   6    -32.0732958 -0.883674E-09  0.167E-04    3.59     117.6  T
   7    -32.0732958 -0.200323E-09  0.592E-05    3.59     331.5  T
   8    -32.0732958 -0.327418E-10  0.168E-05    3.59    1168.9  T
   9    -32.0732958 -0.106581E-12  0.627E-06    3.59    3127.0  T
  10    -32.0732958 -0.845546E-12  0.200E-06    3.59    9816.2  T
     SCC iter.                  ...        0 min,  0.074 sec
     gradient                   ...        0 min,  0.002 sec
 * total energy  :   -31.5521242 Eh     change       -0.1693205E-04 Eh
   gradient norm :     0.0013999 Eh/α   predicted    -0.8933171E-05 ( -47.24%)
   displ. norm   :     0.1964180 α      lambda       -0.1900215E-04
   maximum displ.:     0.1283642 α      in ANC's #2, #4, #6, ...

........................................................................
.............................. CYCLE   18 ..............................
........................................................................

 iter      E             dE          RMSdq      gap      omega  full diag
   1    -32.0720108 -0.320720E+02  0.692E-02    3.59       0.0  T
   2    -32.0720111 -0.303974E-06  0.404E-02    3.59       1.0  T
   3    -32.0720112 -0.302196E-07  0.285E-03    3.59       6.9  T
   4    -32.0720112 -0.380296E-07  0.114E-03    3.59      17.2  T
   5    -32.0720112 -0.829683E-08  0.516E-04    3.59      38.0  T
   6    -32.0720112 -0.253203E-08  0.268E-04    3.59      73.3  T
   7    -32.0720112 -0.305491E-09  0.438E-05    3.59     447.5  T
   8    -32.0720112 -0.231566E-10  0.187E-05    3.59    1048.8  T
   9    -32.0720112 -0.173372E-11  0.788E-06    3.59    2488.4  T
  10    -32.0720112 -0.689226E-12  0.291E-06    3.59    6736.2  T
     SCC iter.                  ...        0 min,  0.073 sec
     gradient                   ...        0 min,  0.002 sec
 * total energy  :   -31.5521447 Eh     change       -0.2051837E-04 Eh
   gradient norm :     0.0011559 Eh/α   predicted    -0.9667284E-05 ( -52.88%)
   displ. norm   :     0.1424677 α      lambda       -0.2017215E-04
   maximum displ.:     0.0903069 α      in ANC's #2, #5, #4, ...

........................................................................
.............................. CYCLE   19 ..............................
........................................................................

 iter      E             dE          RMSdq      gap      omega  full diag
   1    -32.0724867 -0.320725E+02  0.414E-02    3.59       0.0  T
   2    -32.0724868 -0.131573E-06  0.241E-02    3.60       1.0  T
   3    -32.0724868 -0.275666E-08  0.196E-03    3.60      10.0  T
   4    -32.0724868 -0.202005E-07  0.952E-04    3.60      20.6  T
   5    -32.0724869 -0.944301E-08  0.323E-04    3.60      60.7  T
   6    -32.0724869 -0.226052E-09  0.161E-04    3.60     122.0  T
   7    -32.0724869 -0.157975E-09  0.347E-05    3.60     564.4  T
   8    -32.0724869 -0.318323E-11  0.148E-05    3.60    1323.0  T
   9    -32.0724869 -0.831335E-12  0.566E-06    3.60    3464.7  T
  10    -32.0724869 -0.241585E-12  0.174E-06    3.60   11241.2  T
     SCC iter.                  ...        0 min,  0.074 sec
     gradient                   ...        0 min,  0.002 sec
 * total energy  :   -31.5521671 Eh     change       -0.2239565E-04 Eh
   gradient norm :     0.0015498 Eh/α   predicted    -0.1017738E-04 ( -54.56%)
   displ. norm   :     0.3642264 α      lambda       -0.4380160E-04
   maximum displ.:     0.2528994 α      in ANC's #2, #4, #5, ...

........................................................................
.............................. CYCLE   20 ..............................
........................................................................

 iter      E             dE          RMSdq      gap      omega  full diag
   1    -32.0705606 -0.320706E+02  0.113E-01    3.60       0.0  T
   2    -32.0705613 -0.709025E-06  0.656E-02    3.60       1.0  T
   3    -32.0705614 -0.103069E-06  0.429E-03    3.60       4.6  T
   4    -32.0705614 -0.782720E-07  0.191E-03    3.60      10.2  T
   5    -32.0705615 -0.232262E-07  0.847E-04    3.60      23.2  T
   6    -32.0705615 -0.456619E-08  0.362E-04    3.60      54.2  T
   7    -32.0705615 -0.356259E-09  0.702E-05    3.60     279.2  T
   8    -32.0705615 -0.353424E-10  0.388E-05    3.60     505.2  T
   9    -32.0705615 -0.730438E-11  0.161E-05    3.60    1217.2  T
  10    -32.0705615 -0.384404E-11  0.436E-06    3.60    4495.1  T
  11    -32.0705615 -0.710543E-13  0.222E-06    3.60    8832.7  T
     SCC iter.                  ...        0 min,  0.075 sec
     gradient                   ...        0 min,  0.002 sec
 * total energy  :   -31.5522011 Eh     change       -0.3399782E-04 Eh
   gradient norm :     0.0024458 Eh/α   predicted    -0.2319623E-04 ( -31.77%)
   displ. norm   :     0.0691784 α      lambda       -0.3142868E-04
   maximum displ.:     0.0420133 α      in ANC's #3, #2, #1, ...
 * RMSD in coord.:     0.6403469 α      energy gain  -0.1324774E-01 Eh

generating ANC from model Hessian ...
Using Lindh-Hessian (1995)
 Shifting diagonal of input Hessian by   9.155355425357744E-003
 Lowest  eigenvalues of input Hessian
    0.000000    0.000000    0.000000    0.000000    0.000000    0.000000
    0.010000    0.010109    0.010651    0.011203    0.011818    0.012438
    0.015277    0.017799    0.018360    0.019297    0.020643    0.024100
 Highest eigenvalues
    1.361941    1.552624    1.571679    1.880667    1.985675    2.001660
 

........................................................................
.............................. CYCLE   21 ..............................
........................................................................

 iter      E             dE          RMSdq      gap      omega  full diag
   1    -32.0712678 -0.320713E+02  0.217E-02    3.60       0.0  T
   2    -32.0712679 -0.131803E-06  0.124E-02    3.60       1.6  T
   3    -32.0712679  0.322889E-07  0.400E-03    3.60       4.9  T
   4    -32.0712679 -0.598845E-07  0.904E-04    3.60      21.7  T
   5    -32.0712679  0.294605E-09  0.483E-04    3.60      40.6  T
   6    -32.0712679 -0.968114E-09  0.158E-04    3.60     124.0  T
   7    -32.0712679 -0.811795E-10  0.440E-05    3.60     445.9  T
   8    -32.0712679 -0.451905E-11  0.137E-05    3.60    1434.0  T
   9    -32.0712679 -0.873968E-12  0.458E-06    3.60    4281.2  T
  10    -32.0712679 -0.206057E-12  0.186E-06    3.60   10555.7  T
     SCC iter.                  ...        0 min,  0.075 sec
     gradient                   ...        0 min,  0.002 sec
 * total energy  :   -31.5522239 Eh     change       -0.2275889E-04 Eh
   gradient norm :     0.0019765 Eh/α   predicted     0.0000000E+00 (-100.00%)
   displ. norm   :     0.0456651 α      lambda       -0.2206154E-04
   maximum displ.:     0.0251870 α      in ANC's #2, #1, #9, ...

........................................................................
.............................. CYCLE   22 ..............................
........................................................................

 iter      E             dE          RMSdq      gap      omega  full diag
   1    -32.0729662 -0.320730E+02  0.200E-02    3.61       0.0  T
   2    -32.0729663 -0.103648E-06  0.116E-02    3.61       1.7  T
   3    -32.0729662  0.300795E-07  0.225E-03    3.61       8.7  T
   4    -32.0729663 -0.450486E-07  0.675E-04    3.61      29.0  T
   5    -32.0729663 -0.386690E-08  0.259E-04    3.61      75.7  T
   6    -32.0729663 -0.106989E-08  0.148E-04    3.61     132.6  T
   7    -32.0729663 -0.115861E-09  0.382E-05    3.61     513.9  T
   8    -32.0729663 -0.163709E-10  0.101E-05    3.61    1948.4  T
   9    -32.0729663 -0.262901E-12  0.511E-06    3.61    3838.5  T
  10    -32.0729663 -0.135003E-12  0.226E-06    3.61    8678.2  T
     SCC iter.                  ...        0 min,  0.074 sec
     gradient                   ...        0 min,  0.002 sec
 * total energy  :   -31.5522451 Eh     change       -0.2124613E-04 Eh
   gradient norm :     0.0006320 Eh/α   predicted    -0.1110778E-04 ( -47.72%)
   displ. norm   :     0.0659131 α      lambda       -0.1347428E-04
   maximum displ.:     0.0366204 α      in ANC's #2, #1, #9, ...

........................................................................
.............................. CYCLE   23 ..............................
........................................................................

 iter      E             dE          RMSdq      gap      omega  full diag
   1    -32.0732658 -0.320733E+02  0.262E-02    3.60       0.0  T
   2    -32.0732659 -0.840751E-07  0.154E-02    3.61       1.3  T
   3    -32.0732659  0.170839E-07  0.194E-03    3.61      10.1  T
   4    -32.0732659 -0.318283E-07  0.515E-04    3.61      38.1  T
   5    -32.0732659 -0.127947E-08  0.186E-04    3.61     105.3  T
   6    -32.0732659 -0.533674E-09  0.876E-05    3.61     224.0  T
   7    -32.0732659 -0.149853E-10  0.266E-05    3.61     735.9  T
   8    -32.0732659 -0.355271E-11  0.985E-06    3.61    1991.5  T
   9    -32.0732659 -0.163425E-12  0.256E-06    3.61    7659.1  T
     SCC iter.                  ...        0 min,  0.073 sec
     gradient                   ...        0 min,  0.002 sec
 * total energy  :   -31.5522604 Eh     change       -0.1522448E-04 Eh
   gradient norm :     0.0009446 Eh/α   predicted    -0.6775360E-05 ( -55.50%)
   displ. norm   :     0.0922952 α      lambda       -0.1332378E-04
   maximum displ.:     0.0507954 α      in ANC's #1, #2, #9, ...

........................................................................
.............................. CYCLE   24 ..............................
........................................................................

 iter      E             dE          RMSdq      gap      omega  full diag
   1    -32.0728030 -0.320728E+02  0.324E-02    3.60       0.0  T
   2    -32.0728030 -0.852123E-07  0.187E-02    3.60       1.0  T
   3    -32.0728031 -0.106926E-07  0.156E-03    3.60      12.6  T
   4    -32.0728031 -0.227535E-08  0.528E-04    3.60      37.1  T
   5    -32.0728031 -0.399319E-08  0.172E-04    3.60     113.7  T
   6    -32.0728031 -0.632951E-10  0.104E-04    3.60     189.3  T
   7    -32.0728031 -0.914469E-10  0.214E-05    3.60     918.2  T
   8    -32.0728031 -0.147793E-11  0.803E-06    3.60    2440.9  T
   9    -32.0728031 -0.291323E-12  0.348E-06    3.60    5643.2  T
     SCC iter.                  ...        0 min,  0.073 sec
     gradient                   ...        0 min,  0.002 sec
 * total energy  :   -31.5522724 Eh     change       -0.1209136E-04 Eh
   gradient norm :     0.0007335 Eh/α   predicted    -0.6693670E-05 ( -44.64%)
   displ. norm   :     0.0897857 α      lambda        0.6787825E-05
   maximum displ.:     0.0492010 α      in ANC's #2, #1, #9, ...

........................................................................
.............................. CYCLE   25 ..............................
........................................................................

 iter      E             dE          RMSdq      gap      omega  full diag
   1    -32.0722277 -0.320722E+02  0.316E-02    3.60       0.0  T
   2    -32.0722278 -0.844833E-07  0.182E-02    3.60       1.1  T
   3    -32.0722278 -0.996695E-08  0.159E-03    3.60      12.3  T
   4    -32.0722278 -0.304843E-08  0.530E-04    3.60      37.0  T
   5    -32.0722278 -0.366534E-08  0.168E-04    3.60     116.4  T
   6    -32.0722278 -0.348521E-10  0.102E-04    3.60     193.0  T
   7    -32.0722278 -0.925837E-10  0.217E-05    3.60     905.3  T
   8    -32.0722278 -0.136424E-11  0.827E-06    3.60    2372.6  T
   9    -32.0722278 -0.461853E-12  0.337E-06    3.60    5827.4  T
     SCC iter.                  ...        0 min,  0.073 sec
     gradient                   ...        0 min,  0.002 sec
 * total energy  :   -31.5522683 Eh     change        0.4170404E-05 Eh
   gradient norm :     0.0012545 Eh/α   predicted     0.3401493E-05 ( -18.44%)
   displ. norm   :     0.0414162 α      lambda       -0.1058431E-04
   maximum displ.:     0.0176621 α      in ANC's #2, #8, #5, ...

........................................................................
.............................. CYCLE   26 ..............................
........................................................................

 iter      E             dE          RMSdq      gap      omega  full diag
   1    -32.0726613 -0.320727E+02  0.194E-02    3.60       0.0  T
   2    -32.0726614 -0.118350E-06  0.105E-02    3.60       1.9  T
   3    -32.0726614  0.114860E-08  0.254E-03    3.60       7.7  T
   4    -32.0726614 -0.114497E-07  0.697E-04    3.60      28.1  T
   5    -32.0726614 -0.383740E-08  0.188E-04    3.60     104.1  T
   6    -32.0726614 -0.314095E-09  0.106E-04    3.60     184.2  T
   7    -32.0726614 -0.520828E-10  0.305E-05    3.60     643.3  T
   8    -32.0726614 -0.454747E-12  0.888E-06    3.60    2209.6  T
   9    -32.0726614 -0.866862E-12  0.277E-06    3.60    7073.9  T
     SCC iter.                  ...        0 min,  0.073 sec
     gradient                   ...        0 min,  0.002 sec
 * total energy  :   -31.5522770 Eh     change       -0.8678132E-05 Eh
   gradient norm :     0.0003558 Eh/α   predicted    -0.5304400E-05 ( -38.88%)
   displ. norm   :     0.0220005 α      lambda       -0.2453147E-05
   maximum displ.:     0.0128647 α      in ANC's #5, #1, #4, ...

........................................................................
.............................. CYCLE   27 ..............................
........................................................................

 iter      E             dE          RMSdq      gap      omega  full diag
   1    -32.0727761 -0.320728E+02  0.741E-03    3.60       0.0  T
   2    -32.0727761 -0.118205E-07  0.432E-03    3.60       4.5  T
   3    -32.0727761  0.117044E-08  0.653E-04    3.60      30.0  T
   4    -32.0727761 -0.278669E-08  0.259E-04    3.60      75.8  T
   5    -32.0727761 -0.406871E-09  0.873E-05    3.60     224.7  T
   6    -32.0727761 -0.122967E-09  0.386E-05    3.60     507.9  T
   7    -32.0727761 -0.890310E-11  0.143E-05    3.60    1375.3  T
   8    -32.0727761 -0.852651E-12  0.408E-06    3.60    4802.6  T
   9    -32.0727761 -0.213163E-12  0.169E-06    3.60   11615.9  T
     SCC iter.                  ...        0 min,  0.075 sec
     gradient                   ...        0 min,  0.002 sec
 * total energy  :   -31.5522799 Eh     change       -0.2916174E-05 Eh
   gradient norm :     0.0002322 Eh/α   predicted    -0.1228295E-05 ( -57.88%)
   displ. norm   :     0.0522671 α      lambda       -0.4356233E-05
   maximum displ.:     0.0303155 α      in ANC's #1, #5, #4, ...

........................................................................
.............................. CYCLE   28 ..............................
........................................................................

 iter      E             dE          RMSdq      gap      omega  full diag
   1    -32.0727769 -0.320728E+02  0.152E-02    3.60       0.0  T
   2    -32.0727769 -0.270867E-07  0.874E-03    3.60       2.2  T
   3    -32.0727769  0.402479E-08  0.101E-03    3.60      19.5  T
   4    -32.0727769 -0.295252E-08  0.519E-04    3.60      37.8  T
   5    -32.0727769 -0.625445E-08  0.140E-04    3.60     140.6  T
   6    -32.0727769 -0.835882E-10  0.661E-05    3.60     296.6  T
   7    -32.0727769 -0.117382E-10  0.224E-05    3.60     876.6  T
   8    -32.0727769 -0.219558E-11  0.672E-06    3.60    2919.1  T
   9    -32.0727769 -0.326850E-12  0.247E-06    3.60    7932.2  T
     SCC iter.                  ...        0 min,  0.074 sec
     gradient                   ...        0 min,  0.002 sec
 * total energy  :   -31.5522844 Eh     change       -0.4538880E-05 Eh
   gradient norm :     0.0003601 Eh/α   predicted    -0.2183846E-05 ( -51.89%)
   displ. norm   :     0.0521695 α      lambda       -0.3250834E-05
   maximum displ.:     0.0382635 α      in ANC's #1, #2, #5, ...

........................................................................
.............................. CYCLE   29 ..............................
........................................................................

 iter      E             dE          RMSdq      gap      omega  full diag
   1    -32.0726431 -0.320726E+02  0.155E-02    3.60       0.0  T
   2    -32.0726432 -0.400306E-07  0.883E-03    3.60       2.2  T
   3    -32.0726432 -0.713356E-09  0.112E-03    3.61      17.5  T
   4    -32.0726432  0.123898E-08  0.548E-04    3.60      35.8  T
   5    -32.0726432 -0.750687E-08  0.114E-04    3.60     171.3  T
   6    -32.0726432 -0.224389E-10  0.590E-05    3.60     332.5  T
   7    -32.0726432 -0.178062E-10  0.195E-05    3.60    1007.0  T
   8    -32.0726432 -0.336797E-11  0.669E-06    3.60    2932.1  T
   9    -32.0726432 -0.440536E-12  0.280E-06    3.60    7003.2  T
     SCC iter.                  ...        0 min,  0.074 sec
     gradient                   ...        0 min,  0.002 sec
 * total energy  :   -31.5522883 Eh     change       -0.3872309E-05 Eh
   gradient norm :     0.0003735 Eh/α   predicted    -0.1630345E-05 ( -57.90%)
   displ. norm   :     0.0476793 α      lambda       -0.2819643E-05
   maximum displ.:     0.0358115 α      in ANC's #1, #2, #3, ...

........................................................................
.............................. CYCLE   30 ..............................
........................................................................

 iter      E             dE          RMSdq      gap      omega  full diag
   1    -32.0726349 -0.320726E+02  0.146E-02    3.60       0.0  T
   2    -32.0726349 -0.191645E-07  0.841E-03    3.60       2.3  T
   3    -32.0726349  0.134077E-08  0.818E-04    3.60      24.0  T
   4    -32.0726349 -0.301150E-08  0.375E-04    3.60      52.3  T
   5    -32.0726349 -0.214246E-08  0.102E-04    3.60     192.0  T
   6    -32.0726349 -0.105381E-09  0.514E-05    3.60     381.5  T
   7    -32.0726349 -0.155538E-10  0.144E-05    3.60    1365.4  T
   8    -32.0726349 -0.107292E-11  0.662E-06    3.60    2964.1  T
   9    -32.0726349 -0.390799E-12  0.226E-06    3.60    8683.5  T
     SCC iter.                  ...        0 min,  0.073 sec
     gradient                   ...        0 min,  0.002 sec
 * total energy  :   -31.5522920 Eh     change       -0.3713950E-05 Eh
   gradient norm :     0.0002163 Eh/α   predicted    -0.1413100E-05 ( -61.95%)
   displ. norm   :     0.0435025 α      lambda       -0.2385197E-05
   maximum displ.:     0.0333549 α      in ANC's #1, #2, #3, ...

........................................................................
.............................. CYCLE   31 ..............................
........................................................................

 iter      E             dE          RMSdq      gap      omega  full diag
   1    -32.0726719 -0.320727E+02  0.135E-02    3.60       0.0  T
   2    -32.0726719 -0.139925E-07  0.789E-03    3.60       2.5  T
   3    -32.0726719  0.102598E-08  0.712E-04    3.60      27.5  T
   4    -32.0726719 -0.394108E-08  0.250E-04    3.60      78.3  T
   5    -32.0726719 -0.392561E-09  0.859E-05    3.60     228.3  T
   6    -32.0726719 -0.884626E-10  0.418E-05    3.60     469.7  T
   7    -32.0726719 -0.535039E-11  0.102E-05    3.60    1918.3  T
   8    -32.0726719 -0.575540E-12  0.442E-06    3.60    4440.5  T
   9    -32.0726719 -0.284217E-13  0.205E-06    3.60    9586.4  T
     SCC iter.                  ...        0 min,  0.074 sec
     gradient                   ...        0 min,  0.002 sec
 * total energy  :   -31.5522951 Eh     change       -0.3064164E-05 Eh
   gradient norm :     0.0001387 Eh/α   predicted    -0.1196408E-05 ( -60.95%)
   displ. norm   :     0.0319580 α      lambda       -0.1522363E-05
   maximum displ.:     0.0265278 α      in ANC's #1, #3, #2, ...

........................................................................
.............................. CYCLE   32 ..............................
........................................................................

 iter      E             dE          RMSdq      gap      omega  full diag
   1    -32.0727013 -0.320727E+02  0.102E-02    3.60       0.0  T
   2    -32.0727013 -0.621017E-08  0.597E-03    3.60       3.3  T
   3    -32.0727013  0.325024E-09  0.437E-04    3.60      44.9  T
   4    -32.0727013 -0.191263E-08  0.164E-04    3.60     119.6  T
   5    -32.0727013 -0.178055E-09  0.734E-05    3.60     267.2  T
   6    -32.0727013 -0.549392E-10  0.299E-05    3.60     656.0  T
   7    -32.0727013 -0.433431E-12  0.858E-06    3.60    2286.5  T
   8    -32.0727013 -0.788702E-12  0.352E-06    3.60    5571.8  T
     SCC iter.                  ...        0 min,  0.073 sec
     gradient                   ...        0 min,  0.002 sec
 * total energy  :   -31.5522971 Eh     change       -0.2052851E-05 Eh
   gradient norm :     0.0001410 Eh/α   predicted    -0.7624798E-06 ( -62.86%)
   displ. norm   :     0.0204969 α      lambda       -0.1030461E-05
   maximum displ.:     0.0183235 α      in ANC's #1, #3, #4, ...

........................................................................
.............................. CYCLE   33 ..............................
........................................................................

 iter      E             dE          RMSdq      gap      omega  full diag
   1    -32.0727387 -0.320727E+02  0.713E-03    3.60       0.0  T
   2    -32.0727387 -0.292293E-08  0.418E-03    3.60       4.7  T
   3    -32.0727387  0.497877E-09  0.327E-04    3.60      60.0  T
   4    -32.0727387 -0.132292E-08  0.114E-04    3.60     172.5  T
   5    -32.0727387 -0.963780E-10  0.541E-05    3.60     362.2  T
   6    -32.0727387 -0.183604E-10  0.207E-05    3.60     948.3  T
   7    -32.0727387 -0.682121E-12  0.561E-06    3.60    3498.5  T
   8    -32.0727387 -0.419220E-12  0.236E-06    3.60    8317.7  T
     SCC iter.                  ...        0 min,  0.073 sec
     gradient                   ...        0 min,  0.002 sec
 * total energy  :   -31.5522986 Eh     change       -0.1474630E-05 Eh
   gradient norm :     0.0001266 Eh/α   predicted    -0.5175206E-06 ( -64.91%)
   displ. norm   :     0.0178435 α      lambda       -0.9957585E-06
   maximum displ.:     0.0156776 α      in ANC's #1, #2, #3, ...

........................................................................
.............................. CYCLE   34 ..............................
........................................................................

 iter      E             dE          RMSdq      gap      omega  full diag
   1    -32.0727636 -0.320728E+02  0.676E-03    3.60       0.0  T
   2    -32.0727636 -0.284064E-08  0.396E-03    3.60       5.0  T
   3    -32.0727636  0.156106E-08  0.365E-04    3.60      53.7  T
   4    -32.0727636 -0.216270E-08  0.151E-04    3.60     130.1  T
   5    -32.0727636 -0.369099E-09  0.448E-05    3.60     438.0  T
   6    -32.0727636 -0.391509E-11  0.214E-05    3.60     918.1  T
   7    -32.0727636 -0.135003E-11  0.595E-06    3.60    3297.3  T
   8    -32.0727636 -0.504485E-12  0.213E-06    3.60    9214.1  T
     SCC iter.                  ...        0 min,  0.073 sec
     gradient                   ...        0 min,  0.002 sec
 * total energy  :   -31.5523000 Eh     change       -0.1463068E-05 Eh
   gradient norm :     0.0001122 Eh/α   predicted    -0.5020207E-06 ( -65.69%)
   displ. norm   :     0.0213305 α      lambda       -0.1221675E-05
   maximum displ.:     0.0175838 α      in ANC's #1, #2, #3, ...

........................................................................
.............................. CYCLE   35 ..............................
........................................................................

 iter      E             dE          RMSdq      gap      omega  full diag
   1    -32.0727679 -0.320728E+02  0.829E-03    3.60       0.0  T
   2    -32.0727679 -0.386170E-08  0.485E-03    3.60       4.0  T
   3    -32.0727679  0.209132E-08  0.434E-04    3.60      45.2  T
   4    -32.0727679 -0.315119E-08  0.165E-04    3.61     119.0  T
   5    -32.0727679 -0.337650E-09  0.572E-05    3.60     343.1  T
   6    -32.0727679 -0.112479E-10  0.265E-05    3.60     741.3  T
   7    -32.0727679 -0.209610E-11  0.735E-06    3.60    2668.5  T
   8    -32.0727679 -0.824230E-12  0.254E-06    3.60    7731.6  T
     SCC iter.                  ...        0 min,  0.074 sec
     gradient                   ...        0 min,  0.002 sec
 * total energy  :   -31.5523018 Eh     change       -0.1795193E-05 Eh
   gradient norm :     0.0001091 Eh/α   predicted    -0.6127503E-06 ( -65.87%)
   displ. norm   :     0.0299620 α      lambda       -0.1691793E-05
   maximum displ.:     0.0235130 α      in ANC's #1, #2, #4, ...

........................................................................
.............................. CYCLE   36 ..............................
........................................................................

 iter      E             dE          RMSdq      gap      omega  full diag
   1    -32.0727720 -0.320728E+02  0.117E-02    3.61       0.0  T
   2    -32.0727720 -0.782951E-08  0.684E-03    3.61       2.9  T
   3    -32.0727720  0.431588E-08  0.608E-04    3.61      32.3  T
   4    -32.0727720 -0.615822E-08  0.243E-04    3.61      80.6  T
   5    -32.0727720 -0.939274E-09  0.742E-05    3.61     264.3  T
   6    -32.0727720 -0.149711E-10  0.364E-05    3.61     538.1  T
   7    -32.0727720 -0.487432E-11  0.995E-06    3.61    1971.6  T
   8    -32.0727720 -0.130029E-11  0.333E-06    3.61    5885.0  T
     SCC iter.                  ...        0 min,  0.073 sec
     gradient                   ...        0 min,  0.002 sec
 * total energy  :   -31.5523043 Eh     change       -0.2484416E-05 Eh
   gradient norm :     0.0001197 Eh/α   predicted    -0.8475962E-06 ( -65.88%)
   displ. norm   :     0.0444354 α      lambda       -0.2425747E-05
   maximum displ.:     0.0337024 α      in ANC's #1, #2, #4, ...

........................................................................
.............................. CYCLE   37 ..............................
........................................................................

 iter      E             dE          RMSdq      gap      omega  full diag
   1    -32.0727478 -0.320727E+02  0.172E-02    3.61       0.0  T
   2    -32.0727478 -0.174450E-07  0.100E-02    3.61       2.0  T
   3    -32.0727478  0.710619E-08  0.847E-04    3.61      23.2  T
   4    -32.0727478 -0.108550E-07  0.365E-04    3.61      53.7  T
   5    -32.0727478 -0.204773E-08  0.116E-04    3.61     169.1  T
   6    -32.0727478 -0.709264E-10  0.586E-05    3.61     334.6  T
   7    -32.0727478 -0.654410E-11  0.143E-05    3.61    1368.8  T
   8    -32.0727478 -0.371614E-11  0.479E-06    3.61    4091.1  T
   9    -32.0727478 -0.113687E-12  0.196E-06    3.61   10025.4  T
     SCC iter.                  ...        0 min,  0.074 sec
     gradient                   ...        0 min,  0.002 sec
 * total energy  :   -31.5523078 Eh     change       -0.3503380E-05 Eh
   gradient norm :     0.0001272 Eh/α   predicted    -0.1215838E-05 ( -65.30%)
   displ. norm   :     0.0590781 α      lambda       -0.3044986E-05
   maximum displ.:     0.0446767 α      in ANC's #1, #2, #4, ...

........................................................................
.............................. CYCLE   38 ..............................
........................................................................

 iter      E             dE          RMSdq      gap      omega  full diag
   1    -32.0727305 -0.320727E+02  0.229E-02    3.61       0.0  T
   2    -32.0727305 -0.306070E-07  0.133E-02    3.61       1.5  T
   3    -32.0727305  0.142363E-07  0.116E-03    3.61      16.9  T
   4    -32.0727306 -0.209873E-07  0.473E-04    3.61      41.4  T
   5    -32.0727306 -0.350139E-08  0.160E-04    3.61     122.9  T
   6    -32.0727306 -0.154586E-09  0.776E-05    3.61     252.9  T
   7    -32.0727306 -0.123634E-10  0.187E-05    3.61    1046.4  T
   8    -32.0727306 -0.522249E-11  0.640E-06    3.61    3065.2  T
   9    -32.0727306 -0.419220E-12  0.250E-06    3.61    7830.4  T
     SCC iter.                  ...        0 min,  0.073 sec
     gradient                   ...        0 min,  0.002 sec
 * total energy  :   -31.5523121 Eh     change       -0.4313846E-05 Eh
   gradient norm :     0.0001269 Eh/α   predicted    -0.1526647E-05 ( -64.61%)
   displ. norm   :     0.0644383 α      lambda       -0.3089008E-05
   maximum displ.:     0.0496762 α      in ANC's #1, #2, #4, ...

........................................................................
.............................. CYCLE   39 ..............................
........................................................................

 iter      E             dE          RMSdq      gap      omega  full diag
   1    -32.0726950 -0.320727E+02  0.249E-02    3.61       0.0  T
   2    -32.0726950 -0.418222E-07  0.145E-02    3.61       1.4  T
   3    -32.0726950  0.116897E-07  0.122E-03    3.61      16.1  T
   4    -32.0726950 -0.184729E-07  0.563E-04    3.61      34.8  T
   5    -32.0726950 -0.529253E-08  0.178E-04    3.61     109.9  T
   6    -32.0726950 -0.243617E-09  0.892E-05    3.61     219.9  T
   7    -32.0726950 -0.118376E-10  0.201E-05    3.61     973.3  T
   8    -32.0726950 -0.714095E-11  0.700E-06    3.61    2801.1  T
   9    -32.0726950 -0.369482E-12  0.280E-06    3.61    7015.3  T
     SCC iter.                  ...        0 min,  0.074 sec
     gradient                   ...        0 min,  0.002 sec
 * total energy  :   -31.5523165 Eh     change       -0.4340756E-05 Eh
   gradient norm :     0.0001319 Eh/α   predicted    -0.1548239E-05 ( -64.33%)
   displ. norm   :     0.0564884 α      lambda       -0.2580235E-05
   maximum displ.:     0.0450940 α      in ANC's #1, #2, #4, ...

........................................................................
.............................. CYCLE   40 ..............................
........................................................................

 iter      E             dE          RMSdq      gap      omega  full diag
   1    -32.0726856 -0.320727E+02  0.220E-02    3.61       0.0  T
   2    -32.0726857 -0.306011E-07  0.128E-02    3.61       1.5  T
   3    -32.0726856  0.111234E-07  0.113E-03    3.61      17.4  T
   4    -32.0726857 -0.171409E-07  0.465E-04    3.61      42.1  T
   5    -32.0726857 -0.319360E-08  0.169E-04    3.61     116.4  T
   6    -32.0726857 -0.256499E-09  0.793E-05    3.61     247.4  T
   7    -32.0726857 -0.920863E-11  0.172E-05    3.61    1137.1  T
   8    -32.0726857 -0.442668E-11  0.600E-06    3.61    3268.7  T
   9    -32.0726857 -0.447642E-12  0.249E-06    3.61    7884.1  T
     SCC iter.                  ...        0 min,  0.074 sec
     gradient                   ...        0 min,  0.002 sec
 * total energy  :   -31.5523202 Eh     change       -0.3689650E-05 Eh
   gradient norm :     0.0001340 Eh/α   predicted    -0.1293198E-05 ( -64.95%)
   displ. norm   :     0.0444754 α      lambda       -0.2094906E-05
   maximum displ.:     0.0369978 α      in ANC's #1, #2, #6, ...

........................................................................
.............................. CYCLE   41 ..............................
........................................................................

 iter      E             dE          RMSdq      gap      omega  full diag
   1    -32.0727090 -0.320727E+02  0.173E-02    3.61       0.0  T
   2    -32.0727090 -0.226281E-07  0.101E-02    3.61       1.9  T
   3    -32.0727090  0.365850E-08  0.850E-04    3.61      23.1  T
   4    -32.0727090 -0.705982E-08  0.389E-04    3.61      50.4  T
   5    -32.0727090 -0.229317E-08  0.137E-04    3.61     143.5  T
   6    -32.0727090 -0.188692E-09  0.640E-05    3.61     306.4  T
   7    -32.0727090 -0.544986E-11  0.134E-05    3.61    1464.7  T
   8    -32.0727090 -0.244427E-11  0.515E-06    3.61    3808.8  T
   9    -32.0727090 -0.397904E-12  0.198E-06    3.61    9884.6  T
     SCC iter.                  ...        0 min,  0.074 sec
     gradient                   ...        0 min,  0.002 sec
 * total energy  :   -31.5523232 Eh     change       -0.3058064E-05 Eh
   gradient norm :     0.0001243 Eh/α   predicted    -0.1050464E-05 ( -65.65%)
   displ. norm   :     0.0349358 α      lambda       -0.1812101E-05
   maximum displ.:     0.0300784 α      in ANC's #1, #2, #6, ...

........................................................................
.............................. CYCLE   42 ..............................
........................................................................

 iter      E             dE          RMSdq      gap      omega  full diag
   1    -32.0727323 -0.320727E+02  0.134E-02    3.61       0.0  T
   2    -32.0727323 -0.141101E-07  0.779E-03    3.61       2.5  T
   3    -32.0727323  0.167345E-08  0.675E-04    3.61      29.0  T
   4    -32.0727323 -0.380894E-08  0.292E-04    3.61      67.2  T
   5    -32.0727323 -0.107715E-08  0.109E-04    3.61     179.7  T
   6    -32.0727323 -0.137597E-09  0.500E-05    3.61     392.1  T
   7    -32.0727323 -0.267164E-11  0.960E-06    3.61    2042.7  T
   8    -32.0727323 -0.139266E-11  0.384E-06    3.61    5107.5  T
     SCC iter.                  ...        0 min,  0.073 sec
     gradient                   ...        0 min,  0.002 sec
 * total energy  :   -31.5523259 Eh     change       -0.2681405E-05 Eh
   gradient norm :     0.0001182 Eh/α   predicted    -0.9096440E-06 ( -66.08%)
   displ. norm   :     0.0328679 α      lambda       -0.1867469E-05
   maximum displ.:     0.0285433 α      in ANC's #1, #3, #6, ...
 * RMSD in coord.:     0.1374005 α      energy gain  -0.1247913E-03 Eh

generating ANC from model Hessian ...
Using Lindh-Hessian (1995)
 Shifting diagonal of input Hessian by   9.184957582263092E-003
 Lowest  eigenvalues of input Hessian
    0.000000    0.000000    0.000000    0.000000    0.000000    0.000000
    0.010000    0.010186    0.010717    0.011212    0.011859    0.012478
    0.015355    0.017939    0.018439    0.019407    0.020682    0.024208
 Highest eigenvalues
    1.364413    1.554095    1.574877    1.882860    1.988627    2.004981
 

........................................................................
.............................. CYCLE   43 ..............................
........................................................................

 iter      E             dE          RMSdq      gap      omega  full diag
   1    -32.0727535 -0.320728E+02  0.122E-02    3.61       0.0  T
   2    -32.0727535 -0.110803E-07  0.707E-03    3.61       2.8  T
   3    -32.0727535  0.770179E-09  0.596E-04    3.61      32.9  T
   4    -32.0727535 -0.267756E-08  0.254E-04    3.61      77.2  T
   5    -32.0727535 -0.662368E-09  0.101E-04    3.61     194.0  T
   6    -32.0727535 -0.110937E-09  0.449E-05    3.61     437.0  T
   7    -32.0727535 -0.266454E-11  0.827E-06    3.61    2371.4  T
   8    -32.0727535 -0.724754E-12  0.368E-06    3.61    5323.2  T
     SCC iter.                  ...        0 min,  0.074 sec
     gradient                   ...        0 min,  0.002 sec
 * total energy  :   -31.5523287 Eh     change       -0.2778989E-05 Eh
   gradient norm :     0.0001202 Eh/α   predicted     0.0000000E+00 (-100.00%)
   displ. norm   :     0.0159571 α      lambda       -0.2606030E-07
   maximum displ.:     0.0151259 α      in ANC's #1, #2, #3, ...

........................................................................
.............................. CYCLE   44 ..............................
........................................................................

 iter      E             dE          RMSdq      gap      omega  full diag
   1    -32.0727662 -0.320728E+02  0.548E-03    3.61       0.0  T
   2    -32.0727662 -0.197981E-08  0.319E-03    3.61       6.1  T
   3    -32.0727662 -0.995186E-10  0.243E-04    3.61      80.7  T
   4    -32.0727662 -0.320199E-09  0.851E-05    3.61     230.4  T
   5    -32.0727662 -0.909921E-10  0.311E-05    3.61     630.3  T
   6    -32.0727662 -0.985523E-11  0.161E-05    3.61    1220.2  T
   7    -32.0727662 -0.795808E-12  0.449E-06    3.61    4371.0  T
   8    -32.0727662 -0.639488E-13  0.193E-06    3.61   10157.3  T
     SCC iter.                  ...        0 min,  0.073 sec
     gradient                   ...        0 min,  0.002 sec
 * total energy  :   -31.5523304 Eh     change       -0.1662599E-05 Eh
   gradient norm :     0.0001161 Eh/α   predicted    -0.5745294E-06 ( -65.44%)
   displ. norm   :     0.0201253 α      lambda       -0.1359156E-05
   maximum displ.:     0.0175252 α      in ANC's #1, #2, #4, ...

........................................................................
.............................. CYCLE   45 ..............................
........................................................................

 iter      E             dE          RMSdq      gap      omega  full diag
   1    -32.0727721 -0.320728E+02  0.663E-03    3.61       0.0  T
   2    -32.0727721 -0.226689E-08  0.388E-03    3.61       5.1  T
   3    -32.0727721  0.556739E-09  0.310E-04    3.61      63.3  T
   4    -32.0727721 -0.126840E-08  0.106E-04    3.61     184.5  T
   5    -32.0727721 -0.550173E-10  0.430E-05    3.61     456.4  T
   6    -32.0727721 -0.931522E-11  0.166E-05    3.61    1178.7  T
   7    -32.0727721 -0.703437E-12  0.576E-06    3.61    3407.6  T
   8    -32.0727721 -0.184741E-12  0.288E-06    3.61    6815.0  T
     SCC iter.                  ...        0 min,  0.075 sec
     gradient                   ...        0 min,  0.002 sec
 * total energy  :   -31.5523323 Eh     change       -0.1930342E-05 Eh
   gradient norm :     0.0001205 Eh/α   predicted    -0.6797369E-06 ( -64.79%)
   displ. norm   :     0.0250428 α      lambda       -0.1551271E-05
   maximum displ.:     0.0210603 α      in ANC's #1, #2, #4, ...

........................................................................
.............................. CYCLE   46 ..............................
........................................................................

 iter      E             dE          RMSdq      gap      omega  full diag
   1    -32.0727787 -0.320728E+02  0.762E-03    3.61       0.0  T
   2    -32.0727787 -0.284642E-08  0.445E-03    3.61       4.4  T
   3    -32.0727787 -0.689084E-10  0.283E-04    3.61      69.3  T
   4    -32.0727787 -0.759371E-09  0.118E-04    3.61     165.5  T
   5    -32.0727787 -0.122220E-09  0.468E-05    3.61     418.9  T
   6    -32.0727787 -0.187157E-10  0.217E-05    3.61     904.8  T
   7    -32.0727787 -0.987654E-12  0.571E-06    3.61    3433.3  T
   8    -32.0727787 -0.255795E-12  0.223E-06    3.61    8788.9  T
     SCC iter.                  ...        0 min,  0.074 sec
     gradient                   ...        0 min,  0.002 sec
 * total energy  :   -31.5523345 Eh     change       -0.2192454E-05 Eh
   gradient norm :     0.0001119 Eh/α   predicted    -0.7760910E-06 ( -64.60%)
   displ. norm   :     0.0276074 α      lambda       -0.1580409E-05
   maximum displ.:     0.0230619 α      in ANC's #1, #2, #4, ...

........................................................................
.............................. CYCLE   47 ..............................
........................................................................

 iter      E             dE          RMSdq      gap      omega  full diag
   1    -32.0727762 -0.320728E+02  0.823E-03    3.61       0.0  T
   2    -32.0727762 -0.520861E-08  0.479E-03    3.61       4.1  T
   3    -32.0727762  0.647233E-10  0.381E-04    3.61      51.5  T
   4    -32.0727762 -0.653877E-09  0.199E-04    3.61      98.7  T
   5    -32.0727762 -0.670049E-09  0.504E-05    3.61     389.5  T
   6    -32.0727762 -0.610356E-11  0.239E-05    3.61     820.9  T
   7    -32.0727762 -0.363798E-11  0.669E-06    3.61    2932.8  T
   8    -32.0727762 -0.319744E-12  0.314E-06    3.61    6246.9  T
     SCC iter.                  ...        0 min,  0.074 sec
     gradient                   ...        0 min,  0.002 sec
 * total energy  :   -31.5523367 Eh     change       -0.2224176E-05 Eh
   gradient norm :     0.0001083 Eh/α   predicted    -0.7908694E-06 ( -64.44%)
   displ. norm   :     0.0274539 α      lambda       -0.1494066E-05
   maximum displ.:     0.0233554 α      in ANC's #1, #2, #4, ...

........................................................................
.............................. CYCLE   48 ..............................
........................................................................

 iter      E             dE          RMSdq      gap      omega  full diag
   1    -32.0727893 -0.320728E+02  0.877E-03    3.61       0.0  T
   2    -32.0727893 -0.506535E-08  0.507E-03    3.61       3.9  T
   3    -32.0727893 -0.139956E-09  0.398E-04    3.61      49.3  T
   4    -32.0727893 -0.745018E-09  0.178E-04    3.61     110.4  T
   5    -32.0727893 -0.348365E-09  0.569E-05    3.61     344.6  T
   6    -32.0727893 -0.216644E-10  0.294E-05    3.61     666.1  T
   7    -32.0727893 -0.454037E-11  0.768E-06    3.61    2553.6  T
   8    -32.0727893 -0.206057E-12  0.364E-06    3.61    5391.9  T
     SCC iter.                  ...        0 min,  0.074 sec
     gradient                   ...        0 min,  0.002 sec
 * total energy  :   -31.5523388 Eh     change       -0.2106707E-05 Eh
   gradient norm :     0.0001142 Eh/α   predicted    -0.7501389E-06 ( -64.39%)
   displ. norm   :     0.0248221 α      lambda       -0.1317622E-05
   maximum displ.:     0.0219469 α      in ANC's #1, #6, #2, ...

........................................................................
.............................. CYCLE   49 ..............................
........................................................................

 iter      E             dE          RMSdq      gap      omega  full diag
   1    -32.0727849 -0.320728E+02  0.810E-03    3.61       0.0  T
   2    -32.0727849 -0.545302E-08  0.469E-03    3.61       4.2  T
   3    -32.0727849 -0.311132E-09  0.377E-04    3.61      52.0  T
   4    -32.0727849 -0.165159E-09  0.189E-04    3.61     103.9  T
   5    -32.0727849 -0.737707E-09  0.505E-05    3.61     388.4  T
   6    -32.0727849 -0.439826E-11  0.241E-05    3.61     813.2  T
   7    -32.0727849 -0.400036E-11  0.710E-06    3.61    2761.5  T
   8    -32.0727849 -0.532907E-12  0.262E-06    3.61    7480.4  T
     SCC iter.                  ...        0 min,  0.074 sec
     gradient                   ...        0 min,  0.002 sec
 * total energy  :   -31.5523407 Eh     change       -0.1901049E-05 Eh
   gradient norm :     0.0001025 Eh/α   predicted    -0.6618524E-06 ( -65.18%)
[...]
         :: total charge               0.000000000000 e     ::
         :::::::::::::::::::::::::::::::::::::::::::::::::::::

           ------------------------------------------------- 
          |                Numerical Hessian                |
           ------------------------------------------------- 
step length          :   0.00500
SCC accuracy         :   0.30000
Hessian scale factor :   1.00000
frozen atoms in %    :   0.00000    0
RMS gradient         :   0.00004
estimated CPU  time      0.90 min
estimated wall time      0.12 min

writing file <hessian>.

 projected vibrational frequencies (cm⁻¹)
eigval :       -0.00    -0.00    -0.00     0.00     0.00     0.00
eigval :       22.17    75.05   108.82   128.82   164.94   176.52
eigval :      217.39   229.63   253.01   261.13   287.70   365.79
eigval :      378.42   409.30   460.81   585.62   643.85   660.26
eigval :      682.50   688.11   736.70   749.43   779.12   876.81
eigval :      900.78   928.41   933.69   968.14   991.03   999.09
eigval :     1017.80  1020.05  1061.14  1080.69  1084.67  1115.36
eigval :     1121.23  1181.53  1202.22  1228.83  1232.71  1247.92
eigval :     1276.35  1283.78  1316.07  1408.73  1410.70  1421.41
eigval :     1442.74  1455.79  1462.91  1497.68  1503.12  1505.53
eigval :     1512.65  1578.15  1588.98  2928.71  2941.88  2948.27
eigval :     2950.94  3008.09  3012.26  3025.38  3031.30  3034.31
eigval :     3042.40  3058.16  3066.83  3073.88  3086.45  3099.83
           -------------------------------------------------
          |                Property Printout                |
           -------------------------------------------------

    * Orbital Energies and Occupations

         #    Occupation            Energy/Eh            Energy/eV
      -------------------------------------------------------------
         1        2.0000           -0.6578054             -17.8998
       ...           ...                  ...                  ...
        18        2.0000           -0.4749363             -12.9237
        19        2.0000           -0.4731637             -12.8754
        20        2.0000           -0.4666602             -12.6985
        21        2.0000           -0.4608853             -12.5413
        22        2.0000           -0.4563717             -12.4185
        23        2.0000           -0.4435479             -12.0696
        24        2.0000           -0.4415188             -12.0143
        25        2.0000           -0.4234944             -11.5239
        26        2.0000           -0.4156190             -11.3096
        27        2.0000           -0.4055150             -11.0346
        28        2.0000           -0.4021662             -10.9435
        29        2.0000           -0.3975677             -10.8184
        30        2.0000           -0.3633853              -9.8882 (HOMO)
        31                         -0.2297027              -6.2505 (LUMO)
        32                         -0.2212239              -6.0198
        33                         -0.1565550              -4.2601
        34                         -0.1499600              -4.0806
        35                         -0.0924811              -2.5165
        36                         -0.0116170              -0.3161
        37                          0.0649168               1.7665
        38                          0.0898988               2.4463
        39                          0.1149599               3.1282
        40                          0.1226674               3.3379
        41                          0.1345517               3.6613
       ...                                ...                  ...
        64                          0.7725563              21.0223
      -------------------------------------------------------------
                  HL-Gap            0.1336827 Eh            3.6377 eV
             Fermi-level           -0.2965440 Eh           -8.0694 eV

     #   Z          covCN         q      C6AA      α(0)
     1  15 P        3.005    -0.118   165.591    23.118
     2   6 C        3.747    -0.048    21.499     6.614
     3   1 H        0.926     0.044     2.399     2.422
     4   1 H        0.926     0.039     2.465     2.455
     5   6 C        3.769    -0.095    22.343     6.736
     6   1 H        0.925     0.039     2.468     2.457
     7   1 H        0.925     0.037     2.495     2.470
     8   1 H        0.925     0.033     2.546     2.495
     9   6 C        2.915     0.010    27.801     8.646
    10   6 C        2.954    -0.033    28.821     8.805
    11   6 C        3.035    -0.031    28.736     8.793
    12   6 C        2.920    -0.031    28.785     8.798
    13   6 C        2.918    -0.030    28.759     8.794
    14   6 C        2.920    -0.030    28.760     8.794
    15   1 H        0.926     0.036     2.503     2.474
    16   1 H        0.925     0.038     2.476     2.461
    17   1 H        0.926     0.027     2.633     2.538
    18   1 H        0.926     0.028     2.613     2.528
    19   1 H        0.926     0.028     2.620     2.531
    20   6 C        3.748    -0.043    21.416     6.601
    21   1 H        0.925     0.046     2.368     2.406
    22   1 H        0.926     0.042     2.424     2.435
    23   6 C        3.808    -0.098    22.369     6.733
    24   1 H        0.925     0.039     2.459     2.452
    25   1 H        0.925     0.041     2.429     2.437
    26   1 H        0.925     0.033     2.547     2.496

 Mol. C6AA /au·bohr⁶  :       7597.483329
 Mol. C8AA /au·bohr⁸  :     202592.542166
 Mol. α(0) /au        :        139.488897


Wiberg/Mayer (AO) data.
largest (>0.10) Wiberg bond orders for each atom

 ---------------------------------------------------------------------------
     #   Z sym  total        # sym  WBO       # sym  WBO       # sym  WBO
 ---------------------------------------------------------------------------
     1  15 P    3.363 --     2 C    1.028     9 C    1.016    20 C    1.012
     2   6 C    3.991 --     1 P    1.028     5 C    1.010     4 H    0.959
                             3 H    0.953
     3   1 H    0.998 --     2 C    0.953
     4   1 H    0.998 --     2 C    0.959
     5   6 C    3.997 --     2 C    1.010     7 H    0.986     8 H    0.983
                             6 H    0.981
     6   1 H    0.998 --     5 C    0.981
     7   1 H    0.999 --     5 C    0.986
     8   1 H    0.999 --     5 C    0.983
     9   6 C    3.982 --    10 C    1.404    11 C    1.393     1 P    1.016
                            14 C    0.106
    10   6 C    3.992 --    12 C    1.442     9 C    1.404    15 H    0.961
                            13 C    0.108
    11   6 C    3.992 --    13 C    1.452     9 C    1.393    16 H    0.962
                            12 C    0.109
    12   6 C    3.992 --    10 C    1.442    14 C    1.439    17 H    0.970
                            11 C    0.109
    13   6 C    3.991 --    11 C    1.452    14 C    1.432    18 H    0.970
                            10 C    0.108
    14   6 C    3.992 --    12 C    1.439    13 C    1.432    19 H    0.971
                             9 C    0.106
    15   1 H    0.999 --    10 C    0.961
    16   1 H    0.999 --    11 C    0.962
    17   1 H    0.999 --    12 C    0.970
    18   1 H    0.999 --    13 C    0.970
    19   1 H    0.999 --    14 C    0.971
    20   6 C    3.996 --    23 C    1.017     1 P    1.012    22 H    0.956
                            21 H    0.953
    21   1 H    0.998 --    20 C    0.953
    22   1 H    0.997 --    20 C    0.956
    23   6 C    3.996 --    20 C    1.017    25 H    0.985    26 H    0.984
                            24 H    0.983
    24   1 H    0.998 --    23 C    0.983
    25   1 H    0.998 --    23 C    0.985
    26   1 H    0.999 --    23 C    0.984
 ---------------------------------------------------------------------------

Topologies differ in total number of bonds
Writing topology from bond orders to xtbtopo.mol

molecular dipole:
                 x           y           z       tot (Debye)
 q only:        0.220       0.184      -0.162
   full:        0.600       0.195      -0.217       1.696
molecular quadrupole (traceless):
                xx          xy          yy          xz          yz          zz
 q only:       -0.062       0.270      -2.172      -3.631      -0.663       2.234
  q+dip:        2.222      -3.144      -5.737      -6.572      -1.394       3.515
   full:        1.212      -1.403      -3.960      -6.544      -1.098       2.748

           -------------------------------------------------
          |                Geometry Summary                 |
           -------------------------------------------------

      molecular mass/u    :      166.2002322
   center of mass at/Å    :        2.8220946      -0.6788475      -2.2142468
  moments of inertia/u·Å² :        0.3626478E+03   0.7070695E+03   0.9162802E+03
rotational constants/cm⁻¹ :        0.4648486E-01   0.2384155E-01   0.1839790E-01

 * 23 selected distances

     #   Z          #   Z                                           value/Å
     2   6 C        3   1 H                                       1.0942375
     2   6 C        4   1 H                                       1.0952079
     2   6 C        5   6 C                                       1.5249097 (max)
     5   6 C        6   1 H                                       1.0872534
     5   6 C        7   1 H                                       1.0871870
     5   6 C        8   1 H                                       1.0895995
     9   6 C       10   6 C                                       1.3891266
     9   6 C       11   6 C                                       1.3937458
    10   6 C       12   6 C                                       1.3843587
    11   6 C       13   6 C                                       1.3816200
    12   6 C       14   6 C                                       1.3839509
    13   6 C       14   6 C                                       1.3851471
    10   6 C       15   1 H                                       1.0788890 (min)
    11   6 C       16   1 H                                       1.0817874
    12   6 C       17   1 H                                       1.0810204
    13   6 C       18   1 H                                       1.0806916
    14   6 C       19   1 H                                       1.0802523
    20   6 C       21   1 H                                       1.0923906
    20   6 C       22   1 H                                       1.0938135
    20   6 C       23   6 C                                       1.5216018
    23   6 C       24   1 H                                       1.0880867
    23   6 C       25   1 H                                       1.0883940
    23   6 C       26   1 H                                       1.0890836

 * 2 distinct bonds (by element types)

   Z      Z             #   av. dist./Å        max./Å        min./Å
   1 H    6 C          15     1.0871930     1.0952079     1.0788890
   6 C    6 C           8     1.4205576     1.5249097     1.3816200

           -------------------------------------------------
          |               Frequency Printout                |
           -------------------------------------------------
 projected vibrational frequencies (cm⁻¹)
eigval :       -0.00    -0.00    -0.00     0.00     0.00     0.00
eigval :       22.17    75.05   108.82   128.82   164.94   176.52
eigval :      217.39   229.63   253.01   261.13   287.70   365.79
eigval :      378.42   409.30   460.81   585.62   643.85   660.26
eigval :      682.50   688.11   736.70   749.43   779.12   876.81
eigval :      900.78   928.41   933.69   968.14   991.03   999.09
eigval :     1017.80  1020.05  1061.14  1080.69  1084.67  1115.36
eigval :     1121.23  1181.53  1202.22  1228.83  1232.71  1247.92
eigval :     1276.35  1283.78  1316.07  1408.73  1410.70  1421.41
eigval :     1442.74  1455.79  1462.91  1497.68  1503.12  1505.53
eigval :     1512.65  1578.15  1588.98  2928.71  2941.88  2948.27
eigval :     2950.94  3008.09  3012.26  3025.38  3031.30  3034.31
eigval :     3042.40  3058.16  3066.83  3073.88  3086.45  3099.83
 reduced masses (amu)
   1: 14.28   2: 12.52   3: 13.85   4: 14.43   5: 11.78   6: 11.05   7:  9.40   8: 10.60
   9:  7.49  10:  9.72  11: 10.22  12:  8.09  13:  6.58  14:  4.69  15:  8.89  16:  6.19
  17: 11.01  18: 10.30  19: 16.54  20: 17.19  21: 10.96  22: 11.17  23: 15.15  24: 10.55
  25: 13.89  26: 14.57  27:  2.88  28:  5.71  29:  4.72  30:  3.26  31:  3.58  32:  3.97
  33:  3.02  34: 10.90  35:  2.77  36:  3.18  37:  3.79  38:  3.90  39:  9.76  40:  9.44
  41:  8.16  42:  8.31  43:  4.59  44:  1.32  45:  1.88  46:  3.29  47:  3.46  48:  4.17
  49:  3.49  50:  3.93  51: 11.91  52:  2.97  53:  2.92  54:  8.47  55:  2.15  56:  6.72
  57:  3.40  58:  1.54  59:  1.55  60:  1.55  61:  1.56  62: 11.44  63: 11.44  64:  1.95
  65:  1.89  66:  1.54  67:  1.56  68:  1.81  69:  1.87  70:  1.88  71:  1.41  72:  1.90
  73:  1.43  74:  1.79  75:  1.77  76:  1.84  77:  1.90  78:  1.84
 IR intensities (km·mol⁻¹)
   1:  0.20   2:  0.07   3:  0.06   4:  0.11   5:  0.14   6:  0.01   7:  0.09   8:  0.10
   9:  0.46  10:  0.10  11:  0.18  12:  0.24  13:  0.05  14:  0.12  15:  0.33  16:  0.19
  17:  0.36  18:  0.36  19:  1.61  20:  0.87  21:  3.48  22:  0.19  23: 19.48  24:  1.07
  25: 16.30  26: 12.43  27: 28.35  28: 20.16  29: 24.82  30:  0.17  31:  0.14  32:  0.04
  33:  0.03  34:  1.62  35:  4.42  36:  1.60  37:  1.33  38:  3.15  39:  7.39  40:  5.33
  41:  1.46  42:  2.51  43:  0.34  44:  0.01  45:  0.73  46:  0.59  47:  2.43  48: 16.66
  49:  1.78  50:  3.75  51:  0.54  52:  2.48  53:  1.20  54:  1.34  55:  0.26  56:  0.47
  57:  1.57  58:  1.83  59:  4.00  60:  1.87  61:  1.23  62:  0.16  63:  2.83  64: 19.81
  65: 32.32  66:  9.67  67: 20.08  68: 45.50  69: 51.54  70: 26.63  71: 14.69  72: 32.46
  73: 20.94  74: 13.75  75:  8.33  76: 54.03  77: 75.33  78: 19.54
 Raman intensities (Ä⁴*amu⁻¹)
   1:  0.00   2:  0.00   3:  0.00   4:  0.00   5:  0.00   6:  0.00   7:  0.00   8:  0.00
   9:  0.00  10:  0.00  11:  0.00  12:  0.00  13:  0.00  14:  0.00  15:  0.00  16:  0.00
  17:  0.00  18:  0.00  19:  0.00  20:  0.00  21:  0.00  22:  0.00  23:  0.00  24:  0.00
  25:  0.00  26:  0.00  27:  0.00  28:  0.00  29:  0.00  30:  0.00  31:  0.00  32:  0.00
  33:  0.00  34:  0.00  35:  0.00  36:  0.00  37:  0.00  38:  0.00  39:  0.00  40:  0.00
  41:  0.00  42:  0.00  43:  0.00  44:  0.00  45:  0.00  46:  0.00  47:  0.00  48:  0.00
  49:  0.00  50:  0.00  51:  0.00  52:  0.00  53:  0.00  54:  0.00  55:  0.00  56:  0.00
  57:  0.00  58:  0.00  59:  0.00  60:  0.00  61:  0.00  62:  0.00  63:  0.00  64:  0.00
  65:  0.00  66:  0.00  67:  0.00  68:  0.00  69:  0.00  70:  0.00  71:  0.00  72:  0.00
  73:  0.00  74:  0.00  75:  0.00  76:  0.00  77:  0.00  78:  0.00
 output can be read by thermo (or use thermo option).
 writing <g98.out> molden fake output.
 recommended (thermochemical) frequency scaling factor: 1.0
           -------------------------------------------------
          |             Thermodynamic Functions             |
           -------------------------------------------------

Refinement of some symmetry elements was terminated before convergence was reached.
Some symmetry elements may remain unidentified.
Molecule has no symmetry elements
It seems to be the C1 point group
c1  symmetry found (for desy threshold:  0.10E+00) used in thermo

          ...................................................
          :                      SETUP                      :
          :.................................................:
          :  # frequencies                          72      :
          :  # imaginary freq.                       0      :
          :  linear?                             false      :
          :  only rotor calc.                    false      :
          :  symmetry                               c1      :
          :  rotational number                       1      :
          :  scaling factor                  1.0000000      :
          :  rotor cutoff                   50.0000000 cm⁻¹ :
          :  imag. cutoff                  -20.0000000 cm⁻¹ :
          :.................................................:

    mode    ω/cm⁻¹     T·S(HO)/kcal·mol⁻¹    T·S(FR)/kcal·mol⁻¹   T·S(vib)
   ------------------------------------------------------------------------
       1     22.17    -1.91698 (  3.72%)    -1.29712 ( 96.28%)    -1.32020
       2     75.05    -1.19749 ( 83.54%)    -0.93615 ( 16.46%)    -1.15447
       3    108.82    -0.98085 ( 95.73%)    -0.82609 (  4.27%)    -0.97424
       4    128.82    -0.88359 ( 97.78%)    -0.77613 (  2.22%)    -0.88120
       5    164.94    -0.74309 ( 99.16%)    -0.70292 (  0.84%)    -0.74275
       6    176.52    -0.70510 ( 99.36%)    -0.68283 (  0.64%)    -0.70495
       7    217.39    -0.59055 ( 99.72%)    -0.62114 (  0.28%)    -0.59064
       8    229.63    -0.56106 ( 99.78%)    -0.60491 (  0.22%)    -0.56116
       9    253.01    -0.50970 ( 99.85%)    -0.57620 (  0.15%)    -0.50980
      10    261.13    -0.49319 ( 99.87%)    -0.56683 (  0.13%)    -0.49329
      11    287.70    -0.44349 ( 99.91%)    -0.53813 (  0.09%)    -0.44358
   ------------------------------------------------------------------------

   temp. (K)  partition function   enthalpy   heat capacity  entropy
                                   cal/mol     cal/K/mol   cal/K/mol   J/K/mol
 298.15  VIB  0.970E+04             6032.628     39.520     36.301
         ROT  0.117E+07              888.752      2.981     30.749
         INT  0.114E+11             6921.380     42.501     67.050
         TR   0.207E+28             1481.254      4.968     41.214
         TOT                        8402.6341    47.4690   108.2639   452.9762

       T/K    H(0)-H(T)+PV         H(T)/Eh          T*S/Eh         G(T)/Eh
   ------------------------------------------------------------------------
    298.15    0.133904E-01    0.232620E+00    0.514397E-01    0.181180E+00
   ------------------------------------------------------------------------

         :::::::::::::::::::::::::::::::::::::::::::::::::::::
         ::                  THERMODYNAMIC                  ::
         :::::::::::::::::::::::::::::::::::::::::::::::::::::
         :: total free energy         -31.371457017193 Eh   ::
         ::.................................................::
         :: total energy              -31.552636887095 Eh   ::
         :: zero point energy           0.219229093372 Eh   ::
         :: G(RRHO) w/o ZPVE           -0.038049223470 Eh   ::
         :: G(RRHO) contrib.            0.181179869902 Eh   ::
         :::::::::::::::::::::::::::::::::::::::::::::::::::::

optimized geometry written to: xtbopt.xyz


           -------------------------------------------------
          | TOTAL ENERGY              -31.552636887095 Eh   |
          | TOTAL ENTHALPY            -31.320017343934 Eh   |
          | TOTAL FREE ENERGY         -31.371457017193 Eh   |
          | GRADIENT NORM               0.000044805607 Eh/α |
          | HOMO-LUMO GAP               3.637690543596 eV   |
           -------------------------------------------------

------------------------------------------------------------------------
 * finished run on 2025/07/14 at 11:31:25.908     
------------------------------------------------------------------------
 total:
 * wall-time:     0 d,  0 h,  0 min, 20.480 sec
 *  cpu-time:     0 d,  0 h,  3 min, 51.830 sec
 * ratio c/w:    11.320 speedup
 SCF:
 * wall-time:     0 d,  0 h,  0 min,  0.088 sec
 *  cpu-time:     0 d,  0 h,  0 min,  1.052 sec
 * ratio c/w:    11.956 speedup
 ANC optimizer:
 * wall-time:     0 d,  0 h,  0 min, 17.129 sec
 *  cpu-time:     0 d,  0 h,  3 min, 24.985 sec
 * ratio c/w:    11.967 speedup
 analytical hessian:
 * wall-time:     0 d,  0 h,  0 min,  3.254 sec
 *  cpu-time:     0 d,  0 h,  0 min, 25.693 sec
 * ratio c/w:     7.896 speedup

