      -----------------------------------------------------------      
     |                   =====================                   |     
     |                           x T B                           |     
     |                   =====================                   |     
     |                         S. Grimme                         |     
     |          Mulliken Center for Theoretical Chemistry        |     
     |                    University of Bonn                     |     
      -----------------------------------------------------------      

   * xtb version 6.7.0 (08769fc) compiled by 'albert@albert-system' on 2024-03-04

   xtb is free software: you can redistribute it and/or modify it under
   the terms of the GNU Lesser General Public License as published by
   the Free Software Foundation, either version 3 of the License, or
   (at your option) any later version.
   
   xtb is distributed in the hope that it will be useful,
   but WITHOUT ANY WARRANTY; without even the implied warranty of
   MERCHANTABILITY or FITNESS FOR A PARTICULAR PURPOSE.  See the
   GNU Lesser General Public License for more details.
   
   Cite this work as:
   * C. Bannwarth, E. Caldeweyher, S. Ehlert, A. Hansen, P. Pracht,
     J. Seibert, S. Spicher, S. Grimme, WIREs Comput. Mol. Sci., 2020, 11,
     e01493. DOI: 10.1002/wcms.1493
   
   for GFN2-xTB:
   * C. Bannwarth, S. Ehlert and S. Grimme., J. Chem. Theory Comput., 2019,
     15, 1652-1671. DOI: 10.1021/acs.jctc.8b01176
   for GFN1-xTB:
   * S. Grimme, C. Bannwarth, P. Shushkov, J. Chem. Theory Comput., 2017,
     13, 1989-2009. DOI: 10.1021/acs.jctc.7b00118
   for GFN0-xTB:
   * P. Pracht, E. Caldeweyher, S. Ehlert, S. Grimme, ChemRxiv, 2019, preprint.
     DOI: 10.26434/chemrxiv.8326202.v1
   for GFN-FF:
   * S. Spicher and S. Grimme, Angew. Chem. Int. Ed., 2020, 59, 15665-15673.
     DOI: 10.1002/anie.202004239
   
   for ALPB and GBSA implicit solvation:
   * S. Ehlert, M. Stahn, S. Spicher, S. Grimme, J. Chem. Theory Comput.,
     2021, 17, 4250-4261. DOI: 10.1021/acs.jctc.1c00471
   
   for ddCOSMO and CPCM-X implicit solvation:
   * M. Stahn, S. Ehlert, S. Grimme, J. Phys. Chem. A,
     2023, XX, XXXX-XXXX. DOI: 10.1021/acs.jpca.3c04382
   
   for DFT-D4:
   * E. Caldeweyher, C. Bannwarth and S. Grimme, J. Chem. Phys., 2017,
     147, 034112. DOI: 10.1063/1.4993215
   * E. Caldeweyher, S. Ehlert, A. Hansen, H. Neugebauer, S. Spicher,
     C. Bannwarth and S. Grimme, J. Chem. Phys., 2019, 150, 154122.
     DOI: 10.1063/1.5090222
   * E. Caldeweyher, J.-M. Mewes, S. Ehlert and S. Grimme, Phys. Chem. Chem. Phys.
     2020, 22, 8499-8512. DOI: 10.1039/D0CP00502A
   
   for sTDA-xTB:
   * S. Grimme and C. Bannwarth, J. Chem. Phys., 2016, 145, 054103.
     DOI: 10.1063/1.4959605
   
   in the mass-spec context:
   * V. Asgeirsson, C. Bauer and S. Grimme, Chem. Sci., 2017, 8, 4879.
     DOI: 10.1039/c7sc00601b
   * J. Koopman and S. Grimme, ACS Omega 2019, 4, 12, 15120-15133.
     DOI: 10.1021/acsomega.9b02011
   
   for metadynamics refer to:
   * S. Grimme, J. Chem. Theory Comput., 2019, 155, 2847-2862
     DOI: 10.1021/acs.jctc.9b00143
   
   for SPH calculations refer to:
   * S. Spicher and S. Grimme, J. Chem. Theory Comput., 2021, 17, 1701-1714
     DOI: 10.1021/acs.jctc.0c01306
   
   for ONIOM refer to:
   * C. Plett, A. Katbashev, S. Ehlert, S. Grimme, M. Bursch,
     Phys. Chem. Chem. Phys., 2023, 25, 17860-17868. DOI: 10.1039/D3CP02178E
   
   for DIPRO refer to:
   * J. Kohn, N. Gildemeister, S. Grimme, D. Fazzi, A. Hansen,
     J. Chem. Phys., 2023, just accepted.
   
   for PTB refer to:
   * S. Grimme, M. Mueller, A. Hansen, J. Chem. Phys., 2023, 158, 124111.
     DOI: 10.1063/5.0137838
   
   with help from (in alphabetical order)
   P. Atkinson, C. Bannwarth, F. Bohle, G. Brandenburg, E. Caldeweyher
   M. Checinski, S. Dohm, S. Ehlert, S. Ehrlich, I. Gerasimov, C. Hölzer
   A. Katbashev, J. Kohn, J. Koopman, C. Lavigne, S. Lehtola, F. März, M. Müller,
   F. Musil, H. Neugebauer, J. Pisarek, C. Plett, P. Pracht, F. Pultar,
   J. Seibert, P. Shushkov, S. Spicher, M. Stahn, M. Steiner, T. Strunk,
   J. Stückrath, T. Rose, and J. Unsleber
   
 * started run on 2025/07/14 at 11:33:34.562     
   ID    Z sym.   atoms
    1   15 P      1
    2    6 C      2, 5, 9-14, 20, 23
    3    1 H      3, 4, 6-8, 15-19, 21, 22, 24-26

           -------------------------------------------------
          |                Calculation Setup                |
           -------------------------------------------------

          program call               : /home/minenky/programs/xtb/xtb-dist/bin/xtb m1_00_PEt2Ph-PBE0-D3-TZ-uniMM_48.xyz --charge 0 --T --ohess extreme --cycles 5000 --acc 0.01 --iterations 5000
          coordinate file            : m1_00_PEt2Ph-PBE0-D3-TZ-uniMM_48.xyz
          omp threads                :                    12

########################################################################
[WARNING] Please study the warnings concerning your input carefully
-1- prog_main_parseArguments: Unknown option '--T' provided
########################################################################

           -------------------------------------------------
          |                 G F N 2 - x T B                 |
           -------------------------------------------------

        Reference                      10.1021/acs.jctc.8b01176
      * Hamiltonian:
        H0-scaling (s, p, d)           1.850000    2.230000    2.230000
        zeta-weighting                 0.500000
      * Dispersion:
        s8                             2.700000
        a1                             0.520000
        a2                             5.000000
        s9                             5.000000
      * Repulsion:
        kExp                           1.500000    1.000000
        rExp                           1.000000
      * Coulomb:
        alpha                          2.000000
        third order                    shell-resolved
        anisotropic                    true
        a3                             3.000000
        a5                             4.000000
        cn-shift                       1.200000
        cn-exp                         4.000000
        max-rad                        5.000000


          ...................................................
          :                      SETUP                      :
          :.................................................:
          :  # basis functions                  65          :
          :  # atomic orbitals                  64          :
          :  # shells                           38          :
          :  # electrons                        60          :
          :  max. iterations                  5000          :
          :  Hamiltonian                  GFN2-xTB          :
          :  restarted?                      false          :
          :  GBSA solvation                  false          :
          :  PC potential                    false          :
          :  electronic temp.          300.0000000     K    :
          :  accuracy                    0.0100000          :
          :  -> integral cutoff          0.4500000E+02      :
          :  -> integral neglect         0.1000000E-09      :
          :  -> SCF convergence          0.1000000E-07 Eh   :
          :  -> wf. convergence          0.1000000E-05 e    :
          :  Broyden damping             0.4000000          :
          :  net charge                          0          :
          :  unpaired electrons                  0          :
          ...................................................

 iter      E             dE          RMSdq      gap      omega  full diag
   1    -32.0092807 -0.320093E+02  0.378E+00    3.99       0.0  T
   2    -32.0522251 -0.429444E-01  0.224E+00    3.62       1.0  T
   3    -32.0519237  0.301463E-03  0.894E-01    3.40       1.0  T
   4    -32.0531173 -0.119362E-02  0.260E-01    3.45       1.0  T
   5    -32.0541460 -0.102867E-02  0.126E-01    3.48       1.0  T
   6    -32.0543605 -0.214516E-03  0.431E-02    3.47       1.0  T
   7    -32.0543742 -0.137397E-04  0.144E-02    3.47       1.4  T
   8    -32.0543750 -0.743706E-06  0.622E-03    3.47       3.2  T
   9    -32.0543753 -0.344508E-06  0.139E-03    3.47      14.1  T
  10    -32.0543753 -0.252320E-07  0.509E-04    3.47      38.5  T
  11    -32.0543753 -0.522185E-09  0.228E-04    3.47      86.0  T
  12    -32.0543753 -0.461313E-09  0.582E-05    3.47     337.0  T
  13    -32.0543753 -0.522249E-11  0.151E-05    3.47    1298.1  T
  14    -32.0543753 -0.440536E-12  0.409E-06    3.47    4790.0  T
  15    -32.0543753 -0.497380E-13  0.173E-06    3.47   11326.3  T

   *** convergence criteria satisfied after 15 iterations ***

         #    Occupation            Energy/Eh            Energy/eV
      -------------------------------------------------------------
         1        2.0000           -0.6595933             -17.9484
       ...           ...                  ...                  ...
        24        2.0000           -0.4313052             -11.7364
        25        2.0000           -0.4247301             -11.5575
        26        2.0000           -0.4154969             -11.3062
        27        2.0000           -0.4090630             -11.1312
        28        2.0000           -0.4018746             -10.9356
        29        2.0000           -0.4006707             -10.9028
        30        2.0000           -0.3565223              -9.7015 (HOMO)
        31                         -0.2288969              -6.2286 (LUMO)
        32                         -0.2222462              -6.0476
        33                         -0.1533880              -4.1739
        34                         -0.1481424              -4.0312
        35                         -0.1003290              -2.7301
       ...                                ...                  ...
        64                          0.7705077              20.9666
      -------------------------------------------------------------
                  HL-Gap            0.1276254 Eh            3.4729 eV
             Fermi-level           -0.2927096 Eh           -7.9650 eV

 SCC (total)                   0 d,  0 h,  0 min,  0.089 sec
 SCC setup                      ...        0 min,  0.000 sec (  0.160%)
 Dispersion                     ...        0 min,  0.000 sec (  0.144%)
 classical contributions        ...        0 min,  0.000 sec (  0.011%)
 integral evaluation            ...        0 min,  0.002 sec (  2.789%)
 iterations                     ...        0 min,  0.084 sec ( 94.811%)
 molecular gradient             ...        0 min,  0.002 sec (  1.979%)
 printout                       ...        0 min,  0.000 sec (  0.086%)

         :::::::::::::::::::::::::::::::::::::::::::::::::::::
         ::                     SUMMARY                     ::
         :::::::::::::::::::::::::::::::::::::::::::::::::::::
         :: total energy             -31.539382478062 Eh    ::
         :: gradient norm              0.036273974147 Eh/a0 ::
         :: HOMO-LUMO gap              3.472863745186 eV    ::
         ::.................................................::
         :: SCC energy               -32.054217944710 Eh    ::
         :: -> isotropic ES            0.004482309380 Eh    ::
         :: -> anisotropic ES          0.006004450201 Eh    ::
         :: -> anisotropic XC          0.021645833654 Eh    ::
         :: -> dispersion             -0.023416900732 Eh    ::
         :: repulsion energy           0.514835466649 Eh    ::
         :: add. restraining           0.000000000000 Eh    ::
         :: total charge              -0.000000000000 e     ::
         :::::::::::::::::::::::::::::::::::::::::::::::::::::

      ----------------------------------------------------------- 
     |                   =====================                   |
     |                        A N C O P T                        |
     |                   =====================                   |
     |               Approximate Normal Coordinate               |
     |                Rational Function Optimizer                |
      ----------------------------------------------------------- 
      ----------------------------------------------------------- 
     |                   =====================                   |
     |                        A N C O P T                        |
     |                   =====================                   |
     |               Approximate Normal Coordinate               |
     |                Rational Function Optimizer                |
      ----------------------------------------------------------- 

          ...................................................
          :                      SETUP                      :
          :.................................................:
          :   optimization level           extreme          :
          :   max. optcycles                  5000          :
          :   ANC micro-cycles                  20          :
          :   degrees of freedom                72          :
          :.................................................:
          :   RF solver                   davidson          :
          :   write xtbopt.log                true          :
          :   linear?                        false          :
          :   energy convergence         0.5000000E-07 Eh   :
          :   grad. convergence          0.5000000E-04 Eh/α :
          :   maxmium RF displ.          1.0000000          :
          :   Hlow (freq-cutoff)         0.1000000E-01      :
          :   Hmax (freq-cutoff)         5.0000000          :
          :   S6 in model hess.         20.0000000          :
          ...................................................

generating ANC from model Hessian ...
Using Lindh-Hessian (1995)
 Shifting diagonal of input Hessian by   1.176761289010104E-002
 Lowest  eigenvalues of input Hessian
    0.010000    0.011346    0.000000    0.000000    0.000000    0.000000
    0.000000    0.000000    0.012491    0.013239    0.013872    0.013965
    0.016227    0.019496    0.020485    0.021508    0.025698    0.027617
 Highest eigenvalues
    1.349387    1.537816    1.564396    1.866784    1.968457    1.988040
 

........................................................................
.............................. CYCLE    1 ..............................
........................................................................

 iter      E             dE          RMSdq      gap      omega  full diag
   1    -32.0543753 -0.320544E+02  0.869E-07    3.47       0.0  T
   2    -32.0543753 -0.355271E-13  0.509E-07    3.47   38541.5  T
   3    -32.0543753  0.142109E-13  0.310E-07    3.47   63340.7  T
     SCC iter.                  ...        0 min,  0.075 sec
     gradient                   ...        0 min,  0.002 sec
 * total energy  :   -31.5393825 Eh     change        0.2131628E-13 Eh
   gradient norm :     0.0362740 Eh/α   predicted     0.0000000E+00 (-100.00%)
   displ. norm   :     0.4464820 α      lambda       -0.7645852E-02
   maximum displ.:     0.2443374 α      in ANC's #1, #2, #6, ...

........................................................................
.............................. CYCLE    2 ..............................
........................................................................

 iter      E             dE          RMSdq      gap      omega  full diag
   1    -32.0624929 -0.320625E+02  0.288E-01    3.52       0.0  T
   2    -32.0625807 -0.877675E-04  0.153E-01    3.54       1.0  T
   3    -32.0625839 -0.321514E-05  0.520E-02    3.55       1.0  T
   4    -32.0625842 -0.323036E-06  0.247E-02    3.54       1.0  T
   5    -32.0625928 -0.856879E-05  0.658E-03    3.54       3.0  T
   6    -32.0625931 -0.333584E-06  0.397E-03    3.54       4.9  T
   7    -32.0625932 -0.506774E-07  0.106E-03    3.54      18.5  T
   8    -32.0625932 -0.651909E-09  0.314E-04    3.54      62.5  T
   9    -32.0625932 -0.119513E-08  0.103E-04    3.54     189.5  T
  10    -32.0625932 -0.960796E-10  0.432E-05    3.54     453.8  T
  11    -32.0625932 -0.170530E-11  0.171E-05    3.54    1148.7  T
  12    -32.0625932 -0.384404E-11  0.459E-06    3.54    4275.8  T
  13    -32.0625932 -0.710543E-13  0.142E-06    3.54   13789.6  T
     SCC iter.                  ...        0 min,  0.076 sec
     gradient                   ...        0 min,  0.002 sec
 * total energy  :   -31.5436059 Eh     change       -0.4223417E-02 Eh
   gradient norm :     0.0154159 Eh/α   predicted    -0.4585094E-02 (   8.56%)
   displ. norm   :     0.2147264 α      lambda       -0.1144414E-02
   maximum displ.:     0.1364784 α      in ANC's #2, #1, #3, ...

........................................................................
.............................. CYCLE    3 ..............................
........................................................................

 iter      E             dE          RMSdq      gap      omega  full diag
   1    -32.0640937 -0.320641E+02  0.996E-02    3.52       0.0  T
   2    -32.0640968 -0.309458E-05  0.570E-02    3.52       1.0  T
   3    -32.0640970 -0.188736E-06  0.874E-03    3.51       2.2  T
   4    -32.0640971 -0.585194E-07  0.320E-03    3.51       6.1  T
   5    -32.0640972 -0.154247E-06  0.180E-03    3.51      10.9  T
   6    -32.0640973 -0.194502E-07  0.715E-04    3.51      27.4  T
   7    -32.0640973 -0.339754E-08  0.145E-04    3.51     135.6  T
   8    -32.0640973 -0.236611E-11  0.799E-05    3.51     245.3  T
   9    -32.0640973 -0.100002E-09  0.184E-05    3.51    1065.2  T
  10    -32.0640973 -0.173372E-11  0.702E-06    3.51    2793.6  T
  11    -32.0640973 -0.639488E-12  0.276E-06    3.51    7111.5  T
     SCC iter.                  ...        0 min,  0.075 sec
     gradient                   ...        0 min,  0.002 sec
 * total energy  :   -31.5443616 Eh     change       -0.7557490E-03 Eh
   gradient norm :     0.0057127 Eh/α   predicted    -0.5986136E-03 ( -20.79%)
   displ. norm   :     0.1816773 α      lambda       -0.3722788E-03
   maximum displ.:     0.1150417 α      in ANC's #2, #3, #1, ...

........................................................................
.............................. CYCLE    4 ..............................
........................................................................

 iter      E             dE          RMSdq      gap      omega  full diag
   1    -32.0637462 -0.320637E+02  0.634E-02    3.51       0.0  T
   2    -32.0637480 -0.174668E-05  0.364E-02    3.51       1.0  T
   3    -32.0637479  0.686975E-07  0.697E-03    3.52       2.8  T
   4    -32.0637480 -0.818688E-07  0.334E-03    3.51       5.9  T
   5    -32.0637482 -0.254212E-06  0.116E-03    3.51      16.9  T
   6    -32.0637482 -0.111011E-07  0.489E-04    3.51      40.1  T
   7    -32.0637482 -0.459536E-09  0.144E-04    3.51     136.1  T
   8    -32.0637482  0.243858E-10  0.700E-05    3.51     280.0  T
   9    -32.0637482 -0.868852E-10  0.144E-05    3.51    1365.9  T
  10    -32.0637482 -0.980549E-12  0.563E-06    3.51    3481.2  T
  11    -32.0637482 -0.191847E-12  0.186E-06    3.51   10558.6  T
     SCC iter.                  ...        0 min,  0.075 sec
     gradient                   ...        0 min,  0.002 sec
 * total energy  :   -31.5445953 Eh     change       -0.2336751E-03 Eh
   gradient norm :     0.0027685 Eh/α   predicted    -0.1922898E-03 ( -17.71%)
   displ. norm   :     0.1268117 α      lambda       -0.1147087E-03
   maximum displ.:     0.0862755 α      in ANC's #2, #3, #1, ...

........................................................................
.............................. CYCLE    5 ..............................
........................................................................

 iter      E             dE          RMSdq      gap      omega  full diag
   1    -32.0638501 -0.320639E+02  0.386E-02    3.51       0.0  T
   2    -32.0638502 -0.169858E-06  0.224E-02    3.51       1.0  T
   3    -32.0638502  0.137556E-07  0.309E-03    3.51       6.3  T
   4    -32.0638503 -0.594573E-07  0.674E-04    3.51      29.1  T
   5    -32.0638503 -0.578837E-09  0.276E-04    3.51      71.0  T
   6    -32.0638503 -0.160718E-09  0.139E-04    3.51     141.6  T
   7    -32.0638503 -0.147089E-09  0.580E-05    3.51     338.0  T
   8    -32.0638503 -0.133653E-10  0.127E-05    3.51    1549.4  T
   9    -32.0638503 -0.140687E-11  0.532E-06    3.51    3686.8  T
  10    -32.0638503 -0.326850E-12  0.171E-06    3.51   11454.6  T
     SCC iter.                  ...        0 min,  0.074 sec
     gradient                   ...        0 min,  0.002 sec
 * total energy  :   -31.5446811 Eh     change       -0.8582047E-04 Eh
   gradient norm :     0.0027513 Eh/α   predicted    -0.5827736E-04 ( -32.09%)
   displ. norm   :     0.1702721 α      lambda       -0.1177977E-03
   maximum displ.:     0.1014386 α      in ANC's #2, #3, #7, ...

........................................................................
.............................. CYCLE    6 ..............................
........................................................................

 iter      E             dE          RMSdq      gap      omega  full diag
   1    -32.0639563 -0.320640E+02  0.536E-02    3.50       0.0  T
   2    -32.0639567 -0.402376E-06  0.311E-02    3.51       1.0  T
   3    -32.0639566  0.670264E-07  0.527E-03    3.51       3.7  T
   4    -32.0639568 -0.148222E-06  0.115E-03    3.51      17.1  T
   5    -32.0639568 -0.151947E-08  0.535E-04    3.51      36.6  T
   6    -32.0639568 -0.290475E-08  0.271E-04    3.51      72.3  T
   7    -32.0639568 -0.518135E-09  0.545E-05    3.51     360.0  T
   8    -32.0639568 -0.156604E-10  0.263E-05    3.51     746.7  T
   9    -32.0639568 -0.499512E-11  0.803E-06    3.51    2441.8  T
  10    -32.0639568 -0.107292E-11  0.248E-06    3.51    7920.3  T
     SCC iter.                  ...        0 min,  0.074 sec
     gradient                   ...        0 min,  0.002 sec
 * total energy  :   -31.5447692 Eh     change       -0.8802091E-04 Eh
   gradient norm :     0.0029070 Eh/α   predicted    -0.6060693E-04 ( -31.14%)
   displ. norm   :     0.2125205 α      lambda       -0.1116281E-03
   maximum displ.:     0.1184533 α      in ANC's #2, #3, #7, ...

........................................................................
.............................. CYCLE    7 ..............................
........................................................................

 iter      E             dE          RMSdq      gap      omega  full diag
   1    -32.0640914 -0.320641E+02  0.671E-02    3.50       0.0  T
   2    -32.0640921 -0.740679E-06  0.391E-02    3.50       1.0  T
   3    -32.0640920  0.114575E-06  0.654E-03    3.50       3.0  T
   4    -32.0640923 -0.243781E-06  0.150E-03    3.50      13.1  T
   5    -32.0640923 -0.313550E-08  0.752E-04    3.50      26.1  T
   6    -32.0640923 -0.390926E-08  0.381E-04    3.50      51.5  T
   7    -32.0640923 -0.279918E-09  0.731E-05    3.50     268.2  T
   8    -32.0640923 -0.715161E-10  0.286E-05    3.50     685.9  T
   9    -32.0640923 -0.389377E-11  0.120E-05    3.50    1635.6  T
  10    -32.0640923 -0.301981E-11  0.429E-06    3.50    4566.2  T
  11    -32.0640923 -0.284217E-13  0.154E-06    3.50   12729.5  T
     SCC iter.                  ...        0 min,  0.075 sec
     gradient                   ...        0 min,  0.002 sec
 * total energy  :   -31.5448511 Eh     change       -0.8192467E-04 Eh
   gradient norm :     0.0027908 Eh/α   predicted    -0.5833520E-04 ( -28.79%)
   displ. norm   :     0.2379101 α      lambda       -0.1005368E-03
   maximum displ.:     0.1183246 α      in ANC's #2, #6, #3, ...

........................................................................
.............................. CYCLE    8 ..............................
........................................................................

 iter      E             dE          RMSdq      gap      omega  full diag
   1    -32.0641825 -0.320642E+02  0.750E-02    3.50       0.0  T
   2    -32.0641832 -0.747824E-06  0.436E-02    3.50       1.0  T
   3    -32.0641832  0.259486E-07  0.550E-03    3.50       3.6  T
   4    -32.0641833 -0.143937E-06  0.153E-03    3.50      12.8  T
   5    -32.0641833 -0.961622E-08  0.707E-04    3.50      27.7  T
   6    -32.0641833 -0.157746E-08  0.365E-04    3.50      53.7  T
   7    -32.0641833 -0.112089E-08  0.809E-05    3.50     242.5  T
   8    -32.0641833 -0.829843E-10  0.256E-05    3.50     766.7  T
   9    -32.0641833 -0.144240E-11  0.125E-05    3.50    1565.5  T
  10    -32.0641833 -0.140687E-11  0.418E-06    3.50    4691.4  T
  11    -32.0641833 -0.127898E-12  0.166E-06    3.50   11835.8  T
     SCC iter.                  ...        0 min,  0.075 sec
     gradient                   ...        0 min,  0.002 sec
 * total energy  :   -31.5449267 Eh     change       -0.7564885E-04 Eh
   gradient norm :     0.0024655 Eh/α   predicted    -0.5311443E-04 ( -29.79%)
   displ. norm   :     0.2939216 α      lambda       -0.1151464E-03
   maximum displ.:     0.1444274 α      in ANC's #6, #2, #3, ...

........................................................................
.............................. CYCLE    9 ..............................
........................................................................

 iter      E             dE          RMSdq      gap      omega  full diag
   1    -32.0642246 -0.320642E+02  0.883E-02    3.50       0.0  T
   2    -32.0642254 -0.824612E-06  0.513E-02    3.50       1.0  T
   3    -32.0642254 -0.113598E-07  0.526E-03    3.50       3.7  T
   4    -32.0642255 -0.138209E-06  0.173E-03    3.50      11.3  T
   5    -32.0642255 -0.139400E-07  0.797E-04    3.50      24.6  T
   6    -32.0642255 -0.250779E-08  0.416E-04    3.50      47.2  T
   7    -32.0642255 -0.167169E-08  0.845E-05    3.50     232.2  T
   8    -32.0642255 -0.985025E-10  0.352E-05    3.50     556.9  T
   9    -32.0642255 -0.124416E-10  0.145E-05    3.50    1348.5  T
  10    -32.0642255 -0.596856E-12  0.472E-06    3.50    4152.2  T
  11    -32.0642255 -0.497380E-13  0.225E-06    3.50    8732.3  T
     SCC iter.                  ...        0 min,  0.075 sec
     gradient                   ...        0 min,  0.002 sec
 * total energy  :   -31.5450147 Eh     change       -0.8800963E-04 Eh
   gradient norm :     0.0037399 Eh/α   predicted    -0.6254839E-04 ( -28.93%)
   displ. norm   :     0.3698572 α      lambda       -0.1599512E-03
   maximum displ.:     0.1799587 α      in ANC's #6, #4, #3, ...

........................................................................
.............................. CYCLE   10 ..............................
........................................................................

 iter      E             dE          RMSdq      gap      omega  full diag
   1    -32.0640146 -0.320640E+02  0.102E-01    3.49       0.0  T
   2    -32.0640158 -0.114153E-05  0.585E-02    3.50       1.0  T
   3    -32.0640155  0.244567E-06  0.880E-03    3.50       2.2  T
   4    -32.0640160 -0.494406E-06  0.196E-03    3.50      10.0  T
   5    -32.0640160 -0.105787E-07  0.109E-03    3.50      18.0  T
   6    -32.0640160 -0.137636E-07  0.446E-04    3.50      44.0  T
   7    -32.0640160 -0.142979E-08  0.127E-04    3.50     154.3  T
   8    -32.0640160 -0.140417E-09  0.403E-05    3.50     486.7  T
   9    -32.0640160 -0.135927E-10  0.185E-05    3.50    1061.4  T
  10    -32.0640160 -0.200373E-11  0.735E-06    3.50    2668.3  T
  11    -32.0640160 -0.390799E-12  0.277E-06    3.50    7087.8  T
     SCC iter.                  ...        0 min,  0.075 sec
     gradient                   ...        0 min,  0.002 sec
 * total energy  :   -31.5451351 Eh     change       -0.1203478E-03 Eh
   gradient norm :     0.0078678 Eh/α   predicted    -0.9091743E-04 ( -24.45%)
   displ. norm   :     0.3680381 α      lambda       -0.2637655E-03
   maximum displ.:     0.2072722 α      in ANC's #4, #5, #6, ...

........................................................................
.............................. CYCLE   11 ..............................
........................................................................

 iter      E             dE          RMSdq      gap      omega  full diag
   1    -32.0650069 -0.320650E+02  0.873E-02    3.50       0.0  T
   2    -32.0650082 -0.131335E-05  0.492E-02    3.50       1.0  T
   3    -32.0650076  0.628302E-06  0.125E-02    3.50       1.6  T
   4    -32.0650085 -0.936748E-06  0.188E-03    3.50      10.4  T
   5    -32.0650085 -0.170676E-07  0.111E-03    3.50      17.7  T
   6    -32.0650085 -0.178641E-07  0.380E-04    3.50      51.6  T
   7    -32.0650085 -0.333209E-09  0.135E-04    3.50     145.2  T
   8    -32.0650085 -0.130690E-09  0.518E-05    3.50     378.5  T
   9    -32.0650085 -0.359890E-10  0.201E-05    3.50     975.7  T
  10    -32.0650085 -0.966338E-12  0.726E-06    3.50    2700.0  T
  11    -32.0650085 -0.568434E-12  0.278E-06    3.50    7057.9  T
     SCC iter.                  ...        0 min,  0.075 sec
     gradient                   ...        0 min,  0.002 sec
 * total energy  :   -31.5453455 Eh     change       -0.2104019E-03 Eh
   gradient norm :     0.0122548 Eh/α   predicted    -0.1497473E-03 ( -28.83%)
   displ. norm   :     0.4479704 α      lambda       -0.5856487E-03
   maximum displ.:     0.2693567 α      in ANC's #4, #5, #1, ...

........................................................................
.............................. CYCLE   12 ..............................
........................................................................

 iter      E             dE          RMSdq      gap      omega  full diag
   1    -32.0675331 -0.320675E+02  0.965E-02    3.51       0.0  T
   2    -32.0675353 -0.218924E-05  0.549E-02    3.51       1.0  T
   3    -32.0675342  0.102576E-05  0.135E-02    3.51       1.5  T
   4    -32.0675357 -0.143891E-05  0.316E-03    3.51       6.2  T
   5    -32.0675358 -0.716146E-07  0.151E-03    3.51      13.0  T
   6    -32.0675358 -0.317534E-07  0.625E-04    3.51      31.4  T
   7    -32.0675358 -0.630322E-10  0.169E-04    3.51     115.9  T
   8    -32.0675358 -0.440046E-09  0.905E-05    3.51     216.7  T
   9    -32.0675358 -0.370761E-10  0.298E-05    3.51     657.2  T
  10    -32.0675358 -0.102460E-10  0.932E-06    3.51    2104.4  T
  11    -32.0675358 -0.163425E-12  0.428E-06    3.51    4577.1  T
     SCC iter.                  ...        0 min,  0.076 sec
     gradient                   ...        0 min,  0.002 sec
 * total energy  :   -31.5457945 Eh     change       -0.4489690E-03 Eh
   gradient norm :     0.0137424 Eh/α   predicted    -0.3515920E-03 ( -21.69%)
   displ. norm   :     0.5963543 α      lambda       -0.7555283E-03
   maximum displ.:     0.3998615 α      in ANC's #4, #5, #6, ...

........................................................................
.............................. CYCLE   13 ..............................
........................................................................

 iter      E             dE          RMSdq      gap      omega  full diag
   1    -32.0618453 -0.320618E+02  0.120E-01    3.52       0.0  T
   2    -32.0618505 -0.527615E-05  0.691E-02    3.52       1.0  T
   3    -32.0618494  0.116071E-05  0.190E-02    3.52       1.0  T
   4    -32.0618513 -0.190275E-05  0.390E-03    3.52       5.0  T
   5    -32.0618513 -0.580517E-07  0.251E-03    3.52       7.8  T
   6    -32.0618514 -0.594698E-07  0.105E-03    3.52      18.7  T
   7    -32.0618514 -0.630013E-08  0.376E-04    3.52      52.1  T
   8    -32.0618514 -0.407283E-10  0.141E-04    3.52     138.9  T
   9    -32.0618514 -0.239780E-09  0.509E-05    3.52     384.9  T
  10    -32.0618514 -0.751044E-11  0.107E-05    3.52    1825.5  T
  11    -32.0618514 -0.136424E-11  0.443E-06    3.52    4431.8  T
  12    -32.0618514 -0.923706E-13  0.159E-06    3.52   12372.7  T
     SCC iter.                  ...        0 min,  0.076 sec
     gradient                   ...        0 min,  0.002 sec
 * total energy  :   -31.5463343 Eh     change       -0.5398049E-03 Eh
   gradient norm :     0.0164062 Eh/α   predicted    -0.5121126E-03 (  -5.13%)
   displ. norm   :     0.5171311 α      lambda       -0.1702263E-02
   maximum displ.:     0.2872840 α      in ANC's #4, #5, #9, ...

........................................................................
.............................. CYCLE   14 ..............................
........................................................................

 iter      E             dE          RMSdq      gap      omega  full diag
   1    -32.0621576 -0.320622E+02  0.218E-01    3.54       0.0  T
   2    -32.0621814 -0.237903E-04  0.116E-01    3.53       1.0  T
   3    -32.0621800  0.141414E-05  0.459E-02    3.54       1.0  T
   4    -32.0621848 -0.486075E-05  0.673E-03    3.53       2.9  T
   5    -32.0621849 -0.854759E-07  0.443E-03    3.53       4.4  T
   6    -32.0621851 -0.194152E-06  0.195E-03    3.53      10.0  T
   7    -32.0621851 -0.267747E-07  0.498E-04    3.53      39.4  T
   8    -32.0621851 -0.110685E-08  0.146E-04    3.53     134.0  T
   9    -32.0621851 -0.137412E-09  0.625E-05    3.53     314.0  T
  10    -32.0621851 -0.990497E-11  0.280E-05    3.53     701.5  T
  11    -32.0621851 -0.677147E-11  0.776E-06    3.53    2526.6  T
  12    -32.0621851 -0.120792E-12  0.296E-06    3.53    6623.2  T
     SCC iter.                  ...        0 min,  0.076 sec
     gradient                   ...        0 min,  0.002 sec
 * total energy  :   -31.5461214 Eh     change        0.2128776E-03 Eh
   gradient norm :     0.0303342 Eh/α   predicted    -0.1078754E-02 (-606.75%)
   displ. norm   :     0.3166044 α      lambda       -0.2189343E-02
   maximum displ.:     0.1663778 α      in ANC's #4, #6, #2, ...

........................................................................
.............................. CYCLE   15 ..............................
........................................................................

 iter      E             dE          RMSdq      gap      omega  full diag
   1    -32.0609883 -0.320610E+02  0.128E-01    3.54       0.0  T
   2    -32.0610042 -0.158562E-04  0.632E-02    3.54       1.0  T
   3    -32.0610045 -0.264978E-06  0.344E-02    3.54       1.0  T
   4    -32.0610065 -0.207426E-05  0.485E-03    3.54       4.0  T
   5    -32.0610065 -0.537205E-08  0.315E-03    3.54       6.2  T
   6    -32.0610066 -0.527194E-07  0.112E-03    3.54      17.6  T
   7    -32.0610066 -0.107622E-07  0.364E-04    3.54      53.8  T
   8    -32.0610066 -0.117569E-08  0.122E-04    3.54     161.3  T
   9    -32.0610066 -0.600409E-10  0.417E-05    3.54     469.8  T
  10    -32.0610066 -0.257927E-11  0.209E-05    3.54     937.6  T
  11    -32.0610066 -0.607514E-11  0.636E-06    3.54    3084.4  T
  12    -32.0610066 -0.149214E-12  0.233E-06    3.54    8417.1  T
     SCC iter.                  ...        0 min,  0.076 sec
     gradient                   ...        0 min,  0.002 sec
 * total energy  :   -31.5474621 Eh     change       -0.1340713E-02 Eh
   gradient norm :     0.0093018 Eh/α   predicted    -0.1204405E-02 ( -10.17%)
   displ. norm   :     0.4381361 α      lambda       -0.7174945E-03
   maximum displ.:     0.3454832 α      in ANC's #4, #6, #5, ...

........................................................................
.............................. CYCLE   16 ..............................
........................................................................

 iter      E             dE          RMSdq      gap      omega  full diag
   1    -32.0591338 -0.320591E+02  0.898E-02    3.55       0.0  T
   2    -32.0591375 -0.374882E-05  0.513E-02    3.55       1.0  T
   3    -32.0591373  0.182273E-06  0.145E-02    3.55       1.3  T
   4    -32.0591380 -0.641902E-06  0.269E-03    3.55       7.3  T
   5    -32.0591380 -0.404511E-08  0.172E-03    3.55      11.4  T
   6    -32.0591380 -0.149224E-07  0.585E-04    3.55      33.5  T
   7    -32.0591380 -0.286590E-08  0.173E-04    3.55     113.2  T
   8    -32.0591380 -0.169877E-09  0.656E-05    3.55     299.2  T
   9    -32.0591380 -0.295231E-10  0.300E-05    3.55     654.4  T
  10    -32.0591380 -0.139266E-11  0.120E-05    3.55    1633.7  T
  11    -32.0591380 -0.167688E-11  0.400E-06    3.55    4905.5  T
  12    -32.0591380 -0.426326E-13  0.130E-06    3.55   15031.6  T
     SCC iter.                  ...        0 min,  0.076 sec
     gradient                   ...        0 min,  0.002 sec
 * total energy  :   -31.5479686 Eh     change       -0.5065057E-03 Eh
   gradient norm :     0.0123777 Eh/α   predicted    -0.4276219E-03 ( -15.57%)
   displ. norm   :     0.3724531 α      lambda       -0.1093566E-02
   maximum displ.:     0.2559270 α      in ANC's #4, #2, #8, ...

........................................................................
.............................. CYCLE   17 ..............................
........................................................................

 iter      E             dE          RMSdq      gap      omega  full diag
   1    -32.0700475 -0.320700E+02  0.127E-01    3.56       0.0  T
   2    -32.0700579 -0.103794E-04  0.734E-02    3.56       1.0  T
   3    -32.0700563  0.157764E-05  0.218E-02    3.55       1.0  T
   4    -32.0700594 -0.308935E-05  0.512E-03    3.56       3.8  T
   5    -32.0700594 -0.226240E-07  0.345E-03    3.56       5.7  T
   6    -32.0700595 -0.685125E-07  0.141E-03    3.56      14.0  T
   7    -32.0700595 -0.161858E-07  0.416E-04    3.56      47.1  T
   8    -32.0700595  0.126747E-09  0.192E-04    3.56     102.4  T
   9    -32.0700595 -0.437524E-09  0.533E-05    3.56     367.8  T
  10    -32.0700595 -0.352998E-10  0.252E-05    3.56     778.6  T
  11    -32.0700595 -0.274269E-11  0.554E-06    3.56    3542.5  T
  12    -32.0700595 -0.639488E-13  0.245E-06    3.56    8007.6  T
     SCC iter.                  ...        0 min,  0.076 sec
     gradient                   ...        0 min,  0.002 sec
 * total energy  :   -31.5483495 Eh     change       -0.3809283E-03 Eh
   gradient norm :     0.0153405 Eh/α   predicted    -0.6226429E-03 (  63.45%)
   displ. norm   :     0.5001322 α      lambda       -0.9707352E-03
   maximum displ.:     0.4056067 α      in ANC's #4, #5, #6, ...

........................................................................
.............................. CYCLE   18 ..............................
........................................................................

 iter      E             dE          RMSdq      gap      omega  full diag
   1    -32.0649340 -0.320649E+02  0.113E-01    3.57       0.0  T
   2    -32.0649412 -0.715340E-05  0.648E-02    3.58       1.0  T
   3    -32.0649408  0.410020E-06  0.194E-02    3.57       1.0  T
   4    -32.0649421 -0.126956E-05  0.434E-03    3.57       4.5  T
   5    -32.0649421 -0.567640E-07  0.222E-03    3.57       8.8  T
   6    -32.0649421 -0.172671E-07  0.977E-04    3.57      20.1  T
   7    -32.0649421 -0.142873E-07  0.363E-04    3.57      54.1  T
   8    -32.0649421 -0.110632E-09  0.153E-04    3.57     128.4  T
   9    -32.0649421 -0.142030E-09  0.582E-05    3.57     337.2  T
  10    -32.0649421 -0.573408E-11  0.135E-05    3.57    1454.8  T
  11    -32.0649421 -0.344613E-11  0.520E-06    3.57    3771.2  T
  12    -32.0649421 -0.639488E-13  0.204E-06    3.57    9596.2  T
     SCC iter.                  ...        0 min,  0.076 sec
     gradient                   ...        0 min,  0.002 sec
 * total energy  :   -31.5490169 Eh     change       -0.6673258E-03 Eh
   gradient norm :     0.0130595 Eh/α   predicted    -0.6067761E-03 (  -9.07%)
   displ. norm   :     0.2924995 α      lambda       -0.7362392E-03
   maximum displ.:     0.2184480 α      in ANC's #4, #1, #3, ...

........................................................................
.............................. CYCLE   19 ..............................
........................................................................

 iter      E             dE          RMSdq      gap      omega  full diag
   1    -32.0649664 -0.320650E+02  0.830E-02    3.58       0.0  T
   2    -32.0649714 -0.508858E-05  0.458E-02    3.58       1.0  T
   3    -32.0649715 -0.707420E-07  0.165E-02    3.58       1.2  T
   4    -32.0649721 -0.582597E-06  0.322E-03    3.58       6.1  T
   5    -32.0649721 -0.120296E-07  0.179E-03    3.58      11.0  T
   6    -32.0649721 -0.153594E-07  0.802E-04    3.58      24.5  T
   7    -32.0649721 -0.381736E-08  0.281E-04    3.58      69.7  T
   8    -32.0649721 -0.325279E-09  0.828E-05    3.58     236.9  T
   9    -32.0649721 -0.690079E-10  0.311E-05    3.58     629.9  T
  10    -32.0649721 -0.356692E-11  0.102E-05    3.58    1917.4  T
  11    -32.0649721 -0.227374E-12  0.445E-06    3.58    4406.7  T
  12    -32.0649721 -0.994760E-13  0.128E-06    3.58   15370.7  T
     SCC iter.                  ...        0 min,  0.076 sec
     gradient                   ...        0 min,  0.002 sec
 * total energy  :   -31.5494287 Eh     change       -0.4117949E-03 Eh
   gradient norm :     0.0098151 Eh/α   predicted    -0.3996169E-03 (  -2.96%)
   displ. norm   :     0.3817063 α      lambda       -0.4942952E-03
   maximum displ.:     0.2927006 α      in ANC's #4, #2, #1, ...

........................................................................
.............................. CYCLE   20 ..............................
........................................................................

 iter      E             dE          RMSdq      gap      omega  full diag
   1    -32.0650800 -0.320651E+02  0.885E-02    3.59       0.0  T
   2    -32.0650820 -0.208693E-05  0.503E-02    3.59       1.0  T
   3    -32.0650820  0.926761E-07  0.987E-03    3.59       2.0  T
   4    -32.0650823 -0.378012E-06  0.240E-03    3.59       8.2  T
   5    -32.0650823 -0.118187E-07  0.807E-04    3.59      24.3  T
   6    -32.0650824 -0.463895E-08  0.460E-04    3.59      42.6  T
   7    -32.0650824 -0.282765E-08  0.109E-04    3.59     180.2  T
   8    -32.0650824 -0.297646E-10  0.561E-05    3.59     349.8  T
   9    -32.0650824 -0.203073E-10  0.190E-05    3.59    1033.2  T
  10    -32.0650824 -0.295586E-11  0.555E-06    3.59    3530.8  T
  11    -32.0650824 -0.234479E-12  0.292E-06    3.59    6714.6  T
     SCC iter.                  ...        0 min,  0.076 sec
     gradient                   ...        0 min,  0.002 sec
 * total energy  :   -31.5498107 Eh     change       -0.3820331E-03 Eh
   gradient norm :     0.0091900 Eh/α   predicted    -0.2831600E-03 ( -25.88%)
   displ. norm   :     0.4605401 α      lambda       -0.8263946E-03
   maximum displ.:     0.2367239 α      in ANC's #4, #2, #6, ...
 * RMSD in coord.:     0.9799007 α      energy gain  -0.1042821E-01 Eh

generating ANC from model Hessian ...
Using Lindh-Hessian (1995)
 Shifting diagonal of input Hessian by   9.318258431630009E-003
 Lowest  eigenvalues of input Hessian
    0.000000    0.000000    0.000000    0.000000    0.000000    0.000000
    0.010000    0.010236    0.011070    0.011730    0.012115    0.012266
    0.015200    0.017446    0.018637    0.019546    0.024568    0.024585
 Highest eigenvalues
    1.366895    1.554112    1.578668    1.882118    1.989402    2.009454
 

........................................................................
.............................. CYCLE   21 ..............................
........................................................................

 iter      E             dE          RMSdq      gap      omega  full diag
   1    -32.0713086 -0.320713E+02  0.137E-01    3.60       0.0  T
   2    -32.0713126 -0.407451E-05  0.790E-02    3.60       1.0  T
   3    -32.0713126  0.246255E-07  0.116E-02    3.60       1.7  T
   4    -32.0713131 -0.475004E-06  0.403E-03    3.60       4.9  T
   5    -32.0713132 -0.887435E-07  0.168E-03    3.60      11.7  T
   6    -32.0713132 -0.167666E-07  0.725E-04    3.60      27.1  T
   7    -32.0713132 -0.427168E-08  0.202E-04    3.60      97.2  T
   8    -32.0713132 -0.150195E-09  0.609E-05    3.60     322.1  T
   9    -32.0713132 -0.153904E-10  0.325E-05    3.60     602.6  T
  10    -32.0713132 -0.584777E-11  0.107E-05    3.60    1835.7  T
  11    -32.0713132 -0.618172E-12  0.278E-06    3.60    7064.0  T
  12    -32.0713132 -0.710543E-14  0.872E-07    3.60   22484.8  T
     SCC iter.                  ...        0 min,  0.076 sec
     gradient                   ...        0 min,  0.002 sec
 * total energy  :   -31.5504178 Eh     change       -0.6070896E-03 Eh
   gradient norm :     0.0082922 Eh/α   predicted     0.0000000E+00 (-100.00%)
   displ. norm   :     0.1498990 α      lambda       -0.3997741E-03
   maximum displ.:     0.0907219 α      in ANC's #5, #1, #6, ...

........................................................................
.............................. CYCLE   22 ..............................
........................................................................

 iter      E             dE          RMSdq      gap      omega  full diag
   1    -32.0714663 -0.320715E+02  0.503E-02    3.60       0.0  T
   2    -32.0714671 -0.729335E-06  0.298E-02    3.59       1.0  T
   3    -32.0714670  0.423642E-07  0.484E-03    3.59       4.1  T
   4    -32.0714671 -0.109906E-06  0.213E-03    3.59       9.2  T
   5    -32.0714672 -0.237317E-07  0.983E-04    3.59      19.9  T
   6    -32.0714672 -0.816162E-08  0.324E-04    3.59      60.4  T
   7    -32.0714672 -0.886153E-09  0.960E-05    3.59     204.4  T
   8    -32.0714672 -0.961862E-10  0.311E-05    3.59     631.4  T
   9    -32.0714672 -0.610356E-11  0.132E-05    3.59    1482.7  T
  10    -32.0714672 -0.987654E-12  0.513E-06    3.59    3821.7  T
  11    -32.0714672 -0.213163E-12  0.240E-06    3.59    8187.1  T
     SCC iter.                  ...        0 min,  0.076 sec
     gradient                   ...        0 min,  0.002 sec
 * total energy  :   -31.5507529 Eh     change       -0.3351671E-03 Eh
   gradient norm :     0.0031750 Eh/α   predicted    -0.2051669E-03 ( -38.79%)
   displ. norm   :     0.3858589 α      lambda       -0.6807630E-03
   maximum displ.:     0.2343162 α      in ANC's #1, #5, #6, ...

........................................................................
.............................. CYCLE   23 ..............................
........................................................................

 iter      E             dE          RMSdq      gap      omega  full diag
   1    -32.0700210 -0.320700E+02  0.109E-01    3.59       0.0  T
   2    -32.0700234 -0.242690E-05  0.648E-02    3.59       1.0  T
   3    -32.0700232  0.191030E-06  0.741E-03    3.59       2.6  T
   4    -32.0700236 -0.334350E-06  0.439E-03    3.59       4.5  T
   5    -32.0700238 -0.208102E-06  0.124E-03    3.59      15.8  T
   6    -32.0700238  0.153215E-08  0.618E-04    3.59      31.7  T
   7    -32.0700238 -0.562184E-08  0.191E-04    3.59     102.5  T
   8    -32.0700238 -0.975078E-10  0.491E-05    3.59     399.8  T
   9    -32.0700238 -0.192202E-10  0.208E-05    3.59     944.5  T
  10    -32.0700238 -0.412115E-11  0.906E-06    3.59    2165.4  T
  11    -32.0700238 -0.312639E-12  0.450E-06    3.59    4353.3  T
     SCC iter.                  ...        0 min,  0.076 sec
     gradient                   ...        0 min,  0.002 sec
 * total energy  :   -31.5513074 Eh     change       -0.5544382E-03 Eh
   gradient norm :     0.0053528 Eh/α   predicted    -0.3910605E-03 ( -29.47%)
   displ. norm   :     0.5439521 α      lambda       -0.7370809E-03
   maximum displ.:     0.3352335 α      in ANC's #1, #5, #6, ...

........................................................................
.............................. CYCLE   24 ..............................
........................................................................

 iter      E             dE          RMSdq      gap      omega  full diag
   1    -32.0663977 -0.320664E+02  0.143E-01    3.58       0.0  T
   2    -32.0664018 -0.413119E-05  0.844E-02    3.58       1.0  T
   3    -32.0664011  0.742266E-06  0.129E-02    3.58       1.5  T
   4    -32.0664023 -0.121510E-05  0.426E-03    3.58       4.6  T
   5    -32.0664024 -0.118514E-06  0.169E-03    3.58      11.6  T
   6    -32.0664025 -0.447477E-07  0.758E-04    3.58      25.9  T
   7    -32.0664025 -0.135139E-08  0.202E-04    3.58      97.0  T
   8    -32.0664025 -0.259817E-09  0.763E-05    3.58     257.1  T
   9    -32.0664025 -0.679918E-10  0.342E-05    3.58     572.8  T
  10    -32.0664025 -0.689937E-11  0.142E-05    3.58    1380.5  T
  11    -32.0664025 -0.795808E-12  0.489E-06    3.58    4014.5  T
  12    -32.0664025 -0.113687E-12  0.184E-06    3.58   10651.6  T
     SCC iter.                  ...        0 min,  0.079 sec
     gradient                   ...        0 min,  0.002 sec
 * total energy  :   -31.5519104 Eh     change       -0.6029809E-03 Eh
   gradient norm :     0.0103024 Eh/α   predicted    -0.4775876E-03 ( -20.80%)
   displ. norm   :     0.4735983 α      lambda       -0.6502633E-03
   maximum displ.:     0.3083154 α      in ANC's #1, #5, #6, ...

........................................................................
.............................. CYCLE   25 ..............................
........................................................................

 iter      E             dE          RMSdq      gap      omega  full diag
   1    -32.0649144 -0.320649E+02  0.117E-01    3.58       0.0  T
   2    -32.0649184 -0.400450E-05  0.681E-02    3.58       1.0  T
   3    -32.0649178  0.618800E-06  0.148E-02    3.58       1.3  T
   4    -32.0649188 -0.108191E-05  0.402E-03    3.58       4.9  T
   5    -32.0649189 -0.439190E-07  0.194E-03    3.58      10.1  T
   6    -32.0649189 -0.617320E-07  0.829E-04    3.58      23.6  T
   7    -32.0649189 -0.109139E-08  0.176E-04    3.58     111.4  T
   8    -32.0649189 -0.179448E-09  0.623E-05    3.58     314.7  T
   9    -32.0649189 -0.324505E-10  0.327E-05    3.58     599.9  T
  10    -32.0649189 -0.803624E-11  0.122E-05    3.58    1605.9  T
  11    -32.0649189 -0.405009E-12  0.383E-06    3.58    5119.6  T
  12    -32.0649189 -0.994760E-13  0.142E-06    3.58   13832.1  T
     SCC iter.                  ...        0 min,  0.076 sec
     gradient                   ...        0 min,  0.002 sec
 * total energy  :   -31.5524224 Eh     change       -0.5120620E-03 Eh
   gradient norm :     0.0124265 Eh/α   predicted    -0.3980676E-03 ( -22.26%)
   displ. norm   :     0.3781719 α      lambda       -0.7871366E-03
   maximum displ.:     0.2813413 α      in ANC's #1, #3, #2, ...

........................................................................
.............................. CYCLE   26 ..............................
........................................................................

 iter      E             dE          RMSdq      gap      omega  full diag
   1    -32.0697025 -0.320697E+02  0.970E-02    3.59       0.0  T
   2    -32.0697054 -0.297031E-05  0.561E-02    3.59       1.0  T
   3    -32.0697048  0.598655E-06  0.120E-02    3.59       1.6  T
   4    -32.0697056 -0.754482E-06  0.461E-03    3.59       4.3  T
   5    -32.0697058 -0.241502E-06  0.203E-03    3.59       9.7  T
   6    -32.0697059 -0.682454E-07  0.831E-04    3.59      23.6  T
   7    -32.0697059 -0.111564E-08  0.214E-04    3.59      91.5  T
   8    -32.0697059 -0.225171E-10  0.543E-05    3.59     361.3  T
   9    -32.0697059 -0.371614E-11  0.238E-05    3.59     824.4  T
  10    -32.0697059 -0.645883E-11  0.740E-06    3.59    2651.7  T
  11    -32.0697059 -0.142109E-13  0.257E-06    3.59    7626.0  T
     SCC iter.                  ...        0 min,  0.075 sec
     gradient                   ...        0 min,  0.002 sec
 * total energy  :   -31.5530399 Eh     change       -0.6174820E-03 Eh
   gradient norm :     0.0082684 Eh/α   predicted    -0.4498552E-03 ( -27.15%)
   displ. norm   :     0.4477169 α      lambda       -0.7512629E-03
   maximum displ.:     0.3444819 α      in ANC's #1, #3, #2, ...

........................................................................
.............................. CYCLE   27 ..............................
........................................................................

 iter      E             dE          RMSdq      gap      omega  full diag
   1    -32.0737981 -0.320738E+02  0.115E-01    3.60       0.0  T
   2    -32.0737999 -0.182037E-05  0.676E-02    3.60       1.0  T
   3    -32.0737975  0.245613E-05  0.120E-02    3.59       1.6  T
   4    -32.0738003 -0.283579E-05  0.410E-03    3.60       4.8  T
   5    -32.0738006 -0.232993E-06  0.147E-03    3.60      13.3  T
   6    -32.0738006 -0.156439E-07  0.681E-04    3.60      28.8  T
   7    -32.0738006 -0.264322E-09  0.161E-04    3.60     121.8  T
   8    -32.0738006 -0.965414E-10  0.514E-05    3.60     381.3  T
   9    -32.0738006 -0.248406E-10  0.235E-05    3.60     834.3  T
  10    -32.0738006 -0.330402E-11  0.905E-06    3.60    2166.1  T
  11    -32.0738006 -0.127898E-12  0.296E-06    3.60    6632.5  T
     SCC iter.                  ...        0 min,  0.075 sec
     gradient                   ...        0 min,  0.002 sec
 * total energy  :   -31.5536404 Eh     change       -0.6004720E-03 Eh
   gradient norm :     0.0076074 Eh/α   predicted    -0.4509307E-03 ( -24.90%)
   displ. norm   :     0.5009127 α      lambda       -0.7174088E-03
   maximum displ.:     0.3907757 α      in ANC's #1, #3, #2, ...

........................................................................
.............................. CYCLE   28 ..............................
........................................................................

 iter      E             dE          RMSdq      gap      omega  full diag
   1    -32.0759673 -0.320760E+02  0.132E-01    3.61       0.0  T
   2    -32.0759693 -0.191990E-05  0.776E-02    3.61       1.0  T
   3    -32.0759666  0.270614E-05  0.125E-02    3.61       1.6  T
   4    -32.0759697 -0.315205E-05  0.370E-03    3.61       5.3  T
   5    -32.0759699 -0.213464E-06  0.142E-03    3.61      13.8  T
   6    -32.0759699 -0.974204E-08  0.644E-04    3.61      30.4  T
   7    -32.0759699 -0.380787E-09  0.153E-04    3.61     128.0  T
   8    -32.0759699 -0.118938E-09  0.545E-05    3.61     359.5  T
   9    -32.0759699 -0.217923E-10  0.226E-05    3.61     869.2  T
  10    -32.0759699 -0.625988E-11  0.759E-06    3.61    2584.7  T
  11    -32.0759699 -0.355271E-12  0.345E-06    3.61    5676.6  T
     SCC iter.                  ...        0 min,  0.075 sec
     gradient                   ...        0 min,  0.002 sec
 * total energy  :   -31.5542215 Eh     change       -0.5811410E-03 Eh
   gradient norm :     0.0087757 Eh/α   predicted    -0.4487250E-03 ( -22.79%)
   displ. norm   :     0.5617711 α      lambda       -0.6687451E-03
   maximum displ.:     0.4427270 α      in ANC's #1, #3, #2, ...

........................................................................
.............................. CYCLE   29 ..............................
........................................................................

 iter      E             dE          RMSdq      gap      omega  full diag
   1    -32.0745553 -0.320746E+02  0.158E-01    3.62       0.0  T
   2    -32.0745586 -0.323712E-05  0.931E-02    3.62       1.0  T
   3    -32.0745563  0.229341E-05  0.143E-02    3.61       1.4  T
   4    -32.0745590 -0.276182E-05  0.460E-03    3.61       4.3  T
   5    -32.0745594 -0.332853E-06  0.169E-03    3.62      11.6  T
   6    -32.0745594 -0.260314E-07  0.781E-04    3.62      25.1  T
   7    -32.0745594 -0.241938E-08  0.234E-04    3.62      83.9  T
   8    -32.0745594 -0.416478E-09  0.863E-05    3.62     227.2  T
   9    -32.0745594 -0.639915E-10  0.339E-05    3.62     578.3  T
  10    -32.0745594 -0.316192E-11  0.917E-06    3.62    2139.2  T
  11    -32.0745594 -0.760281E-12  0.439E-06    3.62    4467.3  T
     SCC iter.                  ...        0 min,  0.075 sec
     gradient                   ...        0 min,  0.002 sec
 * total energy  :   -31.5547351 Eh     change       -0.5136075E-03 Eh
   gradient norm :     0.0094092 Eh/α   predicted    -0.4398962E-03 ( -14.35%)
   displ. norm   :     0.5103752 α      lambda       -0.7316984E-03
   maximum displ.:     0.3926156 α      in ANC's #1, #3, #5, ...

........................................................................
.............................. CYCLE   30 ..............................
........................................................................

 iter      E             dE          RMSdq      gap      omega  full diag
   1    -32.0801755 -0.320802E+02  0.199E-01    3.65       0.0  T
   2    -32.0801843 -0.884562E-05  0.114E-01    3.64       1.0  T
   3    -32.0801842  0.134893E-06  0.210E-02    3.64       1.0  T
   4    -32.0801854 -0.125668E-05  0.615E-03    3.64       3.2  T
   5    -32.0801854  0.536783E-07  0.390E-03    3.64       5.0  T
   6    -32.0801855 -0.136681E-06  0.151E-03    3.64      13.0  T
   7    -32.0801855 -0.107518E-07  0.319E-04    3.64      61.4  T
   8    -32.0801855 -0.122053E-08  0.128E-04    3.64     153.6  T
   9    -32.0801855 -0.106233E-09  0.518E-05    3.64     378.8  T
  10    -32.0801855 -0.628120E-11  0.195E-05    3.64    1004.9  T
  11    -32.0801855 -0.323297E-11  0.728E-06    3.64    2694.4  T
  12    -32.0801855 -0.262901E-12  0.222E-06    3.64    8851.0  T
     SCC iter.                  ...        0 min,  0.075 sec
     gradient                   ...        0 min,  0.002 sec
 * total energy  :   -31.5548212 Eh     change       -0.8610184E-04 Eh
   gradient norm :     0.0134495 Eh/α   predicted    -0.4611501E-03 ( 435.59%)
   displ. norm   :     0.4260972 α      lambda       -0.8830086E-03
   maximum displ.:     0.3295557 α      in ANC's #1, #3, #2, ...

........................................................................
.............................. CYCLE   31 ..............................
........................................................................

 iter      E             dE          RMSdq      gap      omega  full diag
   1    -32.0714744 -0.320715E+02  0.135E-01    3.64       0.0  T
   2    -32.0714848 -0.104608E-04  0.742E-02    3.64       1.0  T
   3    -32.0714841  0.745917E-06  0.302E-02    3.64       1.0  T
   4    -32.0714864 -0.231938E-05  0.577E-03    3.64       3.4  T
   5    -32.0714864  0.158388E-07  0.314E-03    3.64       6.2  T
   6    -32.0714865 -0.552127E-07  0.135E-03    3.64      14.6  T
   7    -32.0714865 -0.139889E-07  0.332E-04    3.64      59.0  T
   8    -32.0714865 -0.292303E-09  0.995E-05    3.64     197.2  T
   9    -32.0714865 -0.958877E-10  0.608E-05    3.64     322.4  T
  10    -32.0714865 -0.169535E-10  0.220E-05    3.64     892.9  T
  11    -32.0714865 -0.294875E-11  0.739E-06    3.64    2655.0  T
  12    -32.0714865 -0.426326E-12  0.217E-06    3.64    9018.8  T
     SCC iter.                  ...        0 min,  0.076 sec
     gradient                   ...        0 min,  0.002 sec
 * total energy  :   -31.5552037 Eh     change       -0.3824674E-03 Eh
   gradient norm :     0.0083662 Eh/α   predicted    -0.5216635E-03 (  36.39%)
   displ. norm   :     0.0868654 α      lambda       -0.2506219E-03
   maximum displ.:     0.0551008 α      in ANC's #3, #9, #16, ...

........................................................................
.............................. CYCLE   32 ..............................
........................................................................

 iter      E             dE          RMSdq      gap      omega  full diag
   1    -32.0748803 -0.320749E+02  0.436E-02    3.64       0.0  T
   2    -32.0748822 -0.189421E-05  0.221E-02    3.63       1.0  T
   3    -32.0748823 -0.336612E-07  0.117E-02    3.63       1.7  T
   4    -32.0748826 -0.310855E-06  0.234E-03    3.63       8.4  T
   5    -32.0748826 -0.735626E-08  0.112E-03    3.63      17.5  T
   6    -32.0748826 -0.111084E-07  0.555E-04    3.63      35.4  T
   7    -32.0748826 -0.154075E-08  0.176E-04    3.63     111.4  T
   8    -32.0748826 -0.216367E-09  0.620E-05    3.63     316.1  T
   9    -32.0748826 -0.127045E-10  0.248E-05    3.63     790.8  T
  10    -32.0748826 -0.634515E-11  0.665E-06    3.63    2951.1  T
  11    -32.0748826 -0.596856E-12  0.328E-06    3.63    5985.3  T
     SCC iter.                  ...        0 min,  0.075 sec
     gradient                   ...        0 min,  0.002 sec
 * total energy  :   -31.5553030 Eh     change       -0.9925512E-04 Eh
   gradient norm :     0.0069965 Eh/α   predicted    -0.1262572E-03 (  27.20%)
   displ. norm   :     0.1721884 α      lambda       -0.1832163E-03
   maximum displ.:     0.1541695 α      in ANC's #1, #2, #47, ...

........................................................................
.............................. CYCLE   33 ..............................
........................................................................

 iter      E             dE          RMSdq      gap      omega  full diag
   1    -32.0766706 -0.320767E+02  0.627E-02    3.64       0.0  T
   2    -32.0766714 -0.786919E-06  0.361E-02    3.64       1.0  T
   3    -32.0766713  0.954367E-07  0.461E-03    3.64       4.3  T
   4    -32.0766714 -0.182792E-06  0.170E-03    3.64      11.5  T
   5    -32.0766715 -0.318495E-07  0.733E-04    3.64      26.8  T
   6    -32.0766715 -0.249734E-08  0.325E-04    3.64      60.3  T
   7    -32.0766715 -0.117056E-08  0.129E-04    3.64     151.8  T
   8    -32.0766715  0.491696E-11  0.457E-05    3.64     429.0  T
   9    -32.0766715 -0.147011E-10  0.231E-05    3.64     849.6  T
  10    -32.0766715 -0.419931E-11  0.483E-06    3.64    4060.6  T
  11    -32.0766715  0.142109E-13  0.160E-06    3.64   12241.9  T
     SCC iter.                  ...        0 min,  0.075 sec
     gradient                   ...        0 min,  0.002 sec
 * total energy  :   -31.5554303 Eh     change       -0.1273857E-03 Eh
   gradient norm :     0.0023505 Eh/α   predicted    -0.9432749E-04 ( -25.95%)
   displ. norm   :     0.4601211 α      lambda       -0.1802862E-03
   maximum displ.:     0.4120192 α      in ANC's #1, #2, #47, ...

........................................................................
.............................. CYCLE   34 ..............................
........................................................................

 iter      E             dE          RMSdq      gap      omega  full diag
   1    -32.0742832 -0.320743E+02  0.151E-01    3.65       0.0  T
   2    -32.0742851 -0.185820E-05  0.880E-02    3.65       1.0  T
   3    -32.0742837  0.134250E-05  0.112E-02    3.64       1.8  T
   4    -32.0742854 -0.169798E-05  0.346E-03    3.65       5.7  T
   5    -32.0742856 -0.162762E-06  0.129E-03    3.65      15.2  T
   6    -32.0742856 -0.273470E-07  0.539E-04    3.65      36.4  T
   7    -32.0742856 -0.568953E-09  0.159E-04    3.65     123.5  T
   8    -32.0742856 -0.263192E-09  0.632E-05    3.65     310.3  T
   9    -32.0742856 -0.303331E-10  0.187E-05    3.65    1046.4  T
  10    -32.0742856 -0.767386E-12  0.718E-06    3.65    2729.8  T
  11    -32.0742856 -0.213163E-12  0.287E-06    3.65    6835.3  T
     SCC iter.                  ...        0 min,  0.075 sec
     gradient                   ...        0 min,  0.002 sec
 * total energy  :   -31.5555346 Eh     change       -0.1042803E-03 Eh
   gradient norm :     0.0034988 Eh/α   predicted    -0.1092331E-03 (   4.75%)
   displ. norm   :     0.1530699 α      lambda       -0.7953196E-04
   maximum displ.:     0.1218967 α      in ANC's #1, #3, #4, ...

........................................................................
.............................. CYCLE   35 ..............................
........................................................................

 iter      E             dE          RMSdq      gap      omega  full diag
   1    -32.0765296 -0.320765E+02  0.500E-02    3.65       0.0  T
   2    -32.0765300 -0.442832E-06  0.293E-02    3.65       1.0  T
   3    -32.0765298  0.232403E-06  0.456E-03    3.65       4.3  T
   4    -32.0765301 -0.296430E-06  0.169E-03    3.65      11.6  T
   5    -32.0765301 -0.327200E-07  0.865E-04    3.65      22.7  T
   6    -32.0765301 -0.897035E-08  0.235E-04    3.65      83.6  T
   7    -32.0765301 -0.201148E-09  0.837E-05    3.65     234.4  T
   8    -32.0765301 -0.157740E-10  0.375E-05    3.65     522.7  T
   9    -32.0765301 -0.895284E-11  0.118E-05    3.65    1663.1  T
  10    -32.0765301 -0.667910E-12  0.454E-06    3.65    4316.0  T
  11    -32.0765301 -0.135003E-12  0.189E-06    3.65   10380.4  T
     SCC iter.                  ...        0 min,  0.075 sec
     gradient                   ...        0 min,  0.002 sec
 * total energy  :   -31.5555788 Eh     change       -0.4414059E-04 Eh
   gradient norm :     0.0035552 Eh/α   predicted    -0.4069863E-04 (  -7.80%)
   displ. norm   :     0.1438000 α      lambda       -0.3610654E-04
   maximum displ.:     0.1299149 α      in ANC's #1, #2, #47, ...

........................................................................
.............................. CYCLE   36 ..............................
........................................................................

 iter      E             dE          RMSdq      gap      omega  full diag
   1    -32.0766942 -0.320767E+02  0.503E-02    3.65       0.0  T
   2    -32.0766946 -0.319725E-06  0.292E-02    3.65       1.0  T
   3    -32.0766943  0.293215E-06  0.555E-03    3.65       3.5  T
   4    -32.0766946 -0.368693E-06  0.115E-03    3.65      17.1  T
   5    -32.0766947 -0.735331E-08  0.589E-04    3.65      33.3  T
   6    -32.0766947 -0.559874E-08  0.220E-04    3.65      89.3  T
   7    -32.0766947 -0.157236E-09  0.672E-05    3.65     291.9  T
   8    -32.0766947 -0.248548E-10  0.230E-05    3.65     853.6  T
   9    -32.0766947 -0.424194E-11  0.898E-06    3.65    2182.8  T
  10    -32.0766947 -0.447642E-12  0.340E-06    3.65    5769.5  T
     SCC iter.                  ...        0 min,  0.074 sec
     gradient                   ...        0 min,  0.002 sec
 * total energy  :   -31.5555969 Eh     change       -0.1813339E-04 Eh
   gradient norm :     0.0017591 Eh/α   predicted    -0.1842747E-04 (   1.62%)
   displ. norm   :     0.0780380 α      lambda       -0.1367574E-04
   maximum displ.:     0.0645102 α      in ANC's #1, #5, #6, ...

........................................................................
.............................. CYCLE   37 ..............................
........................................................................

 iter      E             dE          RMSdq      gap      omega  full diag
   1    -32.0771038 -0.320771E+02  0.322E-02    3.65       0.0  T
   2    -32.0771039 -0.177633E-06  0.190E-02    3.65       1.0  T
   3    -32.0771039  0.768495E-07  0.315E-03    3.65       6.2  T
   4    -32.0771040 -0.992706E-07  0.699E-04    3.65      28.0  T
   5    -32.0771040 -0.566245E-08  0.500E-04    3.65      39.3  T
   6    -32.0771040 -0.248643E-08  0.159E-04    3.65     123.3  T
   7    -32.0771040 -0.615685E-10  0.566E-05    3.65     346.3  T
   8    -32.0771040 -0.384404E-11  0.144E-05    3.65    1357.9  T
   9    -32.0771040 -0.132871E-11  0.836E-06    3.65    2345.4  T
  10    -32.0771040 -0.348166E-12  0.149E-06    3.65   13133.2  T
     SCC iter.                  ...        0 min,  0.075 sec
     gradient                   ...        0 min,  0.002 sec
 * total energy  :   -31.5556085 Eh     change       -0.1163954E-04 Eh
   gradient norm :     0.0018782 Eh/α   predicted    -0.6857249E-05 ( -41.09%)
   displ. norm   :     0.0484697 α      lambda       -0.1446628E-04
   maximum displ.:     0.0234635 α      in ANC's #9, #6, #2, ...

........................................................................
.............................. CYCLE   38 ..............................
........................................................................

 iter      E             dE          RMSdq      gap      omega  full diag
   1    -32.0774701 -0.320775E+02  0.155E-02    3.65       0.0  T
   2    -32.0774701 -0.633209E-07  0.902E-03    3.65       2.2  T
   3    -32.0774701  0.164244E-07  0.149E-03    3.65      13.2  T
   4    -32.0774702 -0.270946E-07  0.467E-04    3.65      42.0  T
   5    -32.0774702 -0.127145E-08  0.226E-04    3.65      86.8  T
   6    -32.0774702 -0.110234E-09  0.107E-04    3.65     183.3  T
   7    -32.0774702 -0.607230E-10  0.384E-05    3.65     510.8  T
   8    -32.0774702 -0.756728E-11  0.843E-06    3.65    2326.9  T
   9    -32.0774702 -0.390799E-12  0.497E-06    3.65    3949.2  T
     SCC iter.                  ...        0 min,  0.074 sec
     gradient                   ...        0 min,  0.002 sec
 * total energy  :   -31.5556195 Eh     change       -0.1100825E-04 Eh
   gradient norm :     0.0016080 Eh/α   predicted    -0.7242096E-05 ( -34.21%)
   displ. norm   :     0.0569312 α      lambda       -0.1262300E-04
   maximum displ.:     0.0292916 α      in ANC's #6, #9, #5, ...

........................................................................
.............................. CYCLE   39 ..............................
........................................................................

 iter      E             dE          RMSdq      gap      omega  full diag
   1    -32.0773183 -0.320773E+02  0.184E-02    3.65       0.0  T
   2    -32.0773184 -0.453478E-07  0.108E-02    3.65       1.8  T
   3    -32.0773184  0.359785E-07  0.184E-03    3.65      10.6  T
   4    -32.0773184 -0.466485E-07  0.617E-04    3.65      31.8  T
   5    -32.0773184 -0.152228E-08  0.332E-04    3.65      59.1  T
   6    -32.0773184 -0.978396E-09  0.130E-04    3.65     150.7  T
   7    -32.0773184 -0.180478E-10  0.330E-05    3.65     593.8  T
   8    -32.0773184 -0.181259E-10  0.969E-06    3.65    2024.9  T
   9    -32.0773184 -0.115108E-11  0.425E-06    3.65    4615.5  T
     SCC iter.                  ...        0 min,  0.074 sec
     gradient                   ...        0 min,  0.002 sec
 * total energy  :   -31.5556313 Eh     change       -0.1178608E-04 Eh
   gradient norm :     0.0019301 Eh/α   predicted    -0.6324442E-05 ( -46.34%)
   displ. norm   :     0.0840159 α      lambda       -0.1348449E-04
   maximum displ.:     0.0369337 α      in ANC's #6, #9, #1, ...

........................................................................
.............................. CYCLE   40 ..............................
........................................................................

 iter      E             dE          RMSdq      gap      omega  full diag
   1    -32.0762691 -0.320763E+02  0.318E-02    3.65       0.0  T
   2    -32.0762693 -0.166479E-06  0.185E-02    3.65       1.1  T
   3    -32.0762692  0.618788E-07  0.274E-03    3.65       7.2  T
   4    -32.0762693 -0.725008E-07  0.118E-03    3.65      16.7  T
   5    -32.0762693 -0.202950E-07  0.353E-04    3.65      55.5  T
   6    -32.0762693 -0.133491E-08  0.131E-04    3.65     149.5  T
   7    -32.0762693 -0.447713E-10  0.544E-05    3.65     360.5  T
   8    -32.0762693 -0.124913E-10  0.185E-05    3.65    1061.9  T
   9    -32.0762693 -0.510170E-11  0.560E-06    3.65    3503.7  T
  10    -32.0762693 -0.454747E-12  0.239E-06    3.65    8201.8  T
     SCC iter.                  ...        0 min,  0.074 sec
     gradient                   ...        0 min,  0.002 sec
 * total energy  :   -31.5556417 Eh     change       -0.1033025E-04 Eh
   gradient norm :     0.0015626 Eh/α   predicted    -0.6764200E-05 ( -34.52%)
   displ. norm   :     0.0506828 α      lambda       -0.7701663E-05
   maximum displ.:     0.0256552 α      in ANC's #9, #1, #2, ...

........................................................................
.............................. CYCLE   41 ..............................
........................................................................

 iter      E             dE          RMSdq      gap      omega  full diag
   1    -32.0770978 -0.320771E+02  0.144E-02    3.65       0.0  T
   2    -32.0770978 -0.614334E-07  0.836E-03    3.65       2.3  T
   3    -32.0770978  0.225992E-07  0.160E-03    3.65      12.2  T
   4    -32.0770978 -0.244586E-07  0.768E-04    3.65      25.5  T
   5    -32.0770979 -0.934438E-08  0.216E-04    3.65      90.9  T
   6    -32.0770979 -0.123229E-09  0.110E-04    3.65     178.3  T
   7    -32.0770979 -0.112735E-09  0.326E-05    3.65     602.4  T
   8    -32.0770979 -0.346034E-11  0.744E-06    3.65    2634.9  T
   9    -32.0770979 -0.106581E-12  0.304E-06    3.65    6442.9  T
     SCC iter.                  ...        0 min,  0.074 sec
     gradient                   ...        0 min,  0.002 sec
 * total energy  :   -31.5556474 Eh     change       -0.5734177E-05 Eh
   gradient norm :     0.0009822 Eh/α   predicted    -0.3856870E-05 ( -32.74%)
   displ. norm   :     0.0618792 α      lambda       -0.4596203E-05
   maximum displ.:     0.0493238 α      in ANC's #1, #4, #3, ...

........................................................................
.............................. CYCLE   42 ..............................
........................................................................

 iter      E             dE          RMSdq      gap      omega  full diag
   1    -32.0765459 -0.320765E+02  0.227E-02    3.65       0.0  T
   2    -32.0765460 -0.132789E-06  0.128E-02    3.65       1.5  T
   3    -32.0765460  0.663330E-07  0.307E-03    3.65       6.4  T
   4    -32.0765461 -0.852781E-07  0.839E-04    3.65      23.4  T
   5    -32.0765461 -0.650697E-08  0.352E-04    3.65      55.8  T
   6    -32.0765461 -0.186100E-08  0.116E-04    3.65     169.6  T
   7    -32.0765461 -0.490274E-10  0.450E-05    3.65     436.0  T
   8    -32.0765461 -0.405720E-11  0.124E-05    3.65    1576.1  T
   9    -32.0765461 -0.103029E-11  0.380E-06    3.65    5162.7  T
  10    -32.0765461 -0.113687E-12  0.201E-06    3.65    9736.7  T
     SCC iter.                  ...        0 min,  0.074 sec
     gradient                   ...        0 min,  0.002 sec
 * total energy  :   -31.5556498 Eh     change       -0.2372048E-05 Eh
   gradient norm :     0.0010025 Eh/α   predicted    -0.2303178E-05 (  -2.90%)
   displ. norm   :     0.0189968 α      lambda       -0.3330112E-05
   maximum displ.:     0.0131394 α      in ANC's #3, #6, #7, ...
 * RMSD in coord.:     0.9597621 α      energy gain  -0.5839075E-02 Eh

generating ANC from model Hessian ...
Using Lindh-Hessian (1995)
 Shifting diagonal of input Hessian by   9.127329198299929E-003
 Lowest  eigenvalues of input Hessian
    0.000000    0.000000    0.000000    0.000000    0.000000    0.000000
    0.010000    0.010070    0.010608    0.011247    0.012157    0.012433
    0.015024    0.017071    0.018439    0.019331    0.024237    0.024839
 Highest eigenvalues
    1.364456    1.551774    1.577586    1.882368    1.988126    2.005754
 

........................................................................
.............................. CYCLE   43 ..............................
........................................................................

 iter      E             dE          RMSdq      gap      omega  full diag
   1    -32.0768403 -0.320768E+02  0.816E-03    3.65       0.0  T
   2    -32.0768403 -0.451192E-07  0.434E-03    3.65       4.5  T
   3    -32.0768403  0.652349E-09  0.128E-03    3.65      15.3  T
   4    -32.0768403 -0.606042E-08  0.480E-04    3.65      40.9  T
   5    -32.0768403 -0.235858E-09  0.194E-04    3.65     100.9  T
   6    -32.0768403 -0.553293E-09  0.586E-05    3.65     334.8  T
   7    -32.0768403 -0.116884E-10  0.284E-05    3.65     690.7  T
   8    -32.0768403 -0.162714E-11  0.622E-06    3.65    3152.9  T
   9    -32.0768403 -0.397904E-12  0.257E-06    3.65    7629.7  T
     SCC iter.                  ...        0 min,  0.074 sec
     gradient                   ...        0 min,  0.002 sec
 * total energy  :   -31.5556527 Eh     change       -0.2933957E-05 Eh
   gradient norm :     0.0006118 Eh/α   predicted     0.0000000E+00 (-100.00%)
   displ. norm   :     0.0148197 α      lambda       -0.4034500E-06
   maximum displ.:     0.0109007 α      in ANC's #3, #1, #9, ...

........................................................................
.............................. CYCLE   44 ..............................
........................................................................

 iter      E             dE          RMSdq      gap      omega  full diag
   1    -32.0769201 -0.320769E+02  0.726E-03    3.65       0.0  T
   2    -32.0769201 -0.117573E-07  0.417E-03    3.65       4.7  T
   3    -32.0769201  0.229280E-08  0.661E-04    3.65      29.7  T
   4    -32.0769201 -0.317482E-08  0.312E-04    3.65      62.9  T
   5    -32.0769201 -0.138996E-08  0.937E-05    3.65     209.4  T
   6    -32.0769201 -0.119265E-09  0.360E-05    3.65     544.6  T
   7    -32.0769201  0.390799E-12  0.124E-05    3.65    1582.2  T
   8    -32.0769201 -0.211742E-11  0.347E-06    3.65    5657.6  T
   9    -32.0769201 -0.191847E-12  0.155E-06    3.65   12685.1  T
     SCC iter.                  ...        0 min,  0.074 sec
     gradient                   ...        0 min,  0.002 sec
 * total energy  :   -31.5556547 Eh     change       -0.1961283E-05 Eh
   gradient norm :     0.0002244 Eh/α   predicted    -0.1024951E-05 ( -47.74%)
   displ. norm   :     0.0215675 α      lambda       -0.1462412E-05
   maximum displ.:     0.0160598 α      in ANC's #3, #1, #9, ...

........................................................................
.............................. CYCLE   45 ..............................
........................................................................

 iter      E             dE          RMSdq      gap      omega  full diag
   1    -32.0769219 -0.320769E+02  0.778E-03    3.65       0.0  T
   2    -32.0769219 -0.122272E-07  0.438E-03    3.65       4.5  T
   3    -32.0769219 -0.581821E-09  0.617E-04    3.65      31.8  T
   4    -32.0769219 -0.361091E-09  0.216E-04    3.65      90.9  T
   5    -32.0769219 -0.834994E-09  0.725E-05    3.65     270.5  T
   6    -32.0769219 -0.111420E-09  0.260E-05    3.65     753.0  T
   7    -32.0769219 -0.111555E-11  0.944E-06    3.65    2076.7  T
   8    -32.0769219 -0.206057E-12  0.354E-06    3.65    5534.6  T
     SCC iter.                  ...        0 min,  0.074 sec
     gradient                   ...        0 min,  0.002 sec
 * total energy  :   -31.5556563 Eh     change       -0.1657838E-05 Eh
   gradient norm :     0.0003962 Eh/α   predicted    -0.7361229E-06 ( -55.60%)
   displ. norm   :     0.0307181 α      lambda       -0.1718912E-05
   maximum displ.:     0.0211889 α      in ANC's #3, #1, #9, ...

........................................................................
.............................. CYCLE   46 ..............................
........................................................................

 iter      E             dE          RMSdq      gap      omega  full diag
   1    -32.0769082 -0.320769E+02  0.104E-02    3.65       0.0  T
   2    -32.0769082 -0.636470E-08  0.610E-03    3.65       3.2  T
   3    -32.0769082 -0.847606E-10  0.459E-04    3.65      42.7  T
   4    -32.0769082 -0.117377E-08  0.197E-04    3.65      99.7  T
   5    -32.0769082 -0.416648E-09  0.753E-05    3.65     260.4  T
   6    -32.0769082 -0.608367E-10  0.402E-05    3.65     488.2  T
   7    -32.0769082 -0.311218E-11  0.837E-06    3.65    2342.7  T
   8    -32.0769082 -0.305533E-12  0.384E-06    3.65    5105.4  T
     SCC iter.                  ...        0 min,  0.079 sec
     gradient                   ...        0 min,  0.004 sec
 * total energy  :   -31.5556584 Eh     change       -0.2129362E-05 Eh
   gradient norm :     0.0004091 Eh/α   predicted    -0.8600671E-06 ( -59.61%)
   displ. norm   :     0.0468576 α      lambda       -0.2178901E-05
   maximum displ.:     0.0310034 α      in ANC's #3, #1, #9, ...

[...]
         :::::::::::::::::::::::::::::::::::::::::::::::::::::

           ------------------------------------------------- 
          |                Numerical Hessian                |
           ------------------------------------------------- 
step length          :   0.00500
SCC accuracy         :   0.30000
Hessian scale factor :   1.00000
frozen atoms in %    :   0.00000    0
RMS gradient         :   0.00002
estimated CPU  time      1.12 min
estimated wall time      0.13 min

writing file <hessian>.

 projected vibrational frequencies (cm⁻¹)
eigval :       -0.00    -0.00    -0.00    -0.00     0.00     0.00
eigval :       24.96    64.50    85.26   113.39   161.59   170.51
eigval :      201.54   222.44   248.22   262.84   314.40   361.35
eigval :      366.32   392.79   473.25   585.81   648.65   659.32
eigval :      679.19   690.28   736.61   760.64   769.38   872.82
eigval :      896.05   925.81   931.62   967.51   982.29   995.09
eigval :     1013.57  1017.29  1063.78  1077.68  1084.86  1115.14
eigval :     1123.36  1181.74  1203.78  1222.76  1230.79  1250.36
eigval :     1268.45  1280.25  1317.25  1407.86  1412.82  1421.43
eigval :     1448.90  1451.32  1461.78  1496.55  1499.40  1504.99
eigval :     1506.49  1578.18  1589.22  2936.20  2941.18  2951.20
eigval :     2955.38  3011.72  3012.41  3023.58  3025.41  3034.24
eigval :     3041.04  3054.57  3067.44  3074.38  3086.79  3093.53
           -------------------------------------------------
          |                Property Printout                |
           -------------------------------------------------

    * Orbital Energies and Occupations

         #    Occupation            Energy/Eh            Energy/eV
      -------------------------------------------------------------
         1        2.0000           -0.6587744             -17.9262
       ...           ...                  ...                  ...
        18        2.0000           -0.4754207             -12.9369
        19        2.0000           -0.4741800             -12.9031
        20        2.0000           -0.4670915             -12.7102
        21        2.0000           -0.4610115             -12.5448
        22        2.0000           -0.4564756             -12.4213
        23        2.0000           -0.4434699             -12.0674
        24        2.0000           -0.4381730             -11.9233
        25        2.0000           -0.4239384             -11.5360
        26        2.0000           -0.4163240             -11.3288
        27        2.0000           -0.4071371             -11.0788
        28        2.0000           -0.4029417             -10.9646
        29        2.0000           -0.3995344             -10.8719
        30        2.0000           -0.3641280              -9.9084 (HOMO)
        31                         -0.2300435              -6.2598 (LUMO)
        32                         -0.2216001              -6.0300
        33                         -0.1545869              -4.2065
        34                         -0.1502572              -4.0887
        35                         -0.0931826              -2.5356
        36                          0.0037262               0.1014
        37                          0.0491451               1.3373
        38                          0.0992463               2.7006
        39                          0.1124242               3.0592
        40                          0.1210910               3.2951
        41                          0.1307089               3.5568
       ...                                ...                  ...
        64                          0.7773599              21.1530
      -------------------------------------------------------------
                  HL-Gap            0.1340845 Eh            3.6486 eV
             Fermi-level           -0.2970857 Eh           -8.0841 eV

     #   Z          covCN         q      C6AA      α(0)
     1  15 P        3.030    -0.114   165.425    23.105
     2   6 C        3.748    -0.045    21.454     6.606
     3   1 H        0.926     0.040     2.446     2.446
     4   1 H        0.925     0.046     2.368     2.407
     5   6 C        3.821    -0.097    22.342     6.726
     6   1 H        0.925     0.041     2.434     2.440
     7   1 H        0.925     0.039     2.464     2.455
     8   1 H        0.925     0.031     2.569     2.507
     9   6 C        2.915     0.012    27.743     8.637
    10   6 C        3.033    -0.030    28.717     8.790
    11   6 C        2.956    -0.033    28.819     8.805
    12   6 C        2.918    -0.030    28.748     8.792
    13   6 C        2.920    -0.032    28.787     8.799
    14   6 C        2.920    -0.031    28.774     8.797
    15   1 H        0.925     0.035     2.523     2.484
    16   1 H        0.926     0.036     2.506     2.476
    17   1 H        0.926     0.029     2.606     2.524
    18   1 H        0.926     0.027     2.629     2.535
    19   1 H        0.926     0.028     2.617     2.530
    20   6 C        3.747    -0.046    21.461     6.608
    21   1 H        0.926     0.040     2.450     2.447
    22   1 H        0.926     0.042     2.421     2.433
    23   6 C        3.780    -0.096    22.347     6.734
    24   1 H        0.925     0.037     2.486     2.466
    25   1 H        0.925     0.038     2.472     2.458
    26   1 H        0.925     0.033     2.540     2.492

 Mol. C6AA /au·bohr⁶  :       7599.457149
 Mol. C8AA /au·bohr⁸  :     202588.441115
 Mol. α(0) /au        :        139.500060


Wiberg/Mayer (AO) data.
largest (>0.10) Wiberg bond orders for each atom

 ---------------------------------------------------------------------------
     #   Z sym  total        # sym  WBO       # sym  WBO       # sym  WBO
 ---------------------------------------------------------------------------
     1  15 P    3.374 --     2 C    1.030     9 C    1.018    20 C    1.012
     2   6 C    3.995 --     1 P    1.030     5 C    1.016     3 H    0.956
                             4 H    0.949
     3   1 H    0.998 --     2 C    0.956
     4   1 H    0.998 --     2 C    0.949
     5   6 C    3.997 --     2 C    1.016     6 H    0.985     8 H    0.985
                             7 H    0.983
     6   1 H    0.998 --     5 C    0.985
     7   1 H    0.998 --     5 C    0.983
     8   1 H    0.999 --     5 C    0.985
     9   6 C    3.982 --    11 C    1.404    10 C    1.390     1 P    1.018
                            14 C    0.106
    10   6 C    3.992 --    12 C    1.457     9 C    1.390    15 H    0.962
                            13 C    0.110
    11   6 C    3.993 --    13 C    1.439     9 C    1.404    16 H    0.961
                            12 C    0.107
    12   6 C    3.991 --    10 C    1.457    14 C    1.428    17 H    0.970
                            11 C    0.107
    13   6 C    3.993 --    14 C    1.442    11 C    1.439    18 H    0.970
                            10 C    0.110
    14   6 C    3.992 --    13 C    1.442    12 C    1.428    19 H    0.971
                             9 C    0.106
    15   1 H    0.999 --    10 C    0.962
    16   1 H    0.999 --    11 C    0.961
    17   1 H    0.999 --    12 C    0.970
    18   1 H    0.999 --    13 C    0.970
    19   1 H    0.998 --    14 C    0.971
    20   6 C    3.994 --     1 P    1.012    23 C    1.012    21 H    0.957
                            22 H    0.956
    21   1 H    0.998 --    20 C    0.957
    22   1 H    0.998 --    20 C    0.956
    23   6 C    3.997 --    20 C    1.012    24 H    0.985    26 H    0.983
                            25 H    0.983
    24   1 H    0.999 --    23 C    0.985
    25   1 H    0.999 --    23 C    0.983
    26   1 H    0.999 --    23 C    0.983
 ---------------------------------------------------------------------------

Topologies differ in total number of bonds
Writing topology from bond orders to xtbtopo.mol

molecular dipole:
                 x           y           z       tot (Debye)
 q only:        0.137       0.287      -0.024
   full:        0.058       0.647      -0.074       1.663
molecular quadrupole (traceless):
                xx          xy          yy          xz          yz          zz
 q only:        0.460       1.647      -1.405      -0.971      -1.749       0.944
  q+dip:        2.382       2.609      -3.668       0.534      -1.671       1.286
   full:        1.412       3.485      -3.504      -0.189      -3.673       2.092

           -------------------------------------------------
          |                Geometry Summary                 |
           -------------------------------------------------

      molecular mass/u    :      166.2002322
   center of mass at/Å    :        0.6660875       0.4542844      -3.2177368
  moments of inertia/u·Å² :        0.3627715E+03   0.7184427E+03   0.8754897E+03
rotational constants/cm⁻¹ :        0.4646900E-01   0.2346413E-01   0.1925509E-01

 * 24 selected distances

     #   Z          #   Z                                           value/Å
     1  15 P        2   6 C                                       1.8634342 (max)
     2   6 C        3   1 H                                       1.0942859
     2   6 C        4   1 H                                       1.0920699
     2   6 C        5   6 C                                       1.5243826
     5   6 C        6   1 H                                       1.0880584
     5   6 C        7   1 H                                       1.0883983
     5   6 C        8   1 H                                       1.0892013
     9   6 C       10   6 C                                       1.3938397
     9   6 C       11   6 C                                       1.3889596
    10   6 C       12   6 C                                       1.3808381
    11   6 C       13   6 C                                       1.3847393
    12   6 C       14   6 C                                       1.3857427
    13   6 C       14   6 C                                       1.3835311
    10   6 C       15   1 H                                       1.0820583
    11   6 C       16   1 H                                       1.0792855 (min)
    12   6 C       17   1 H                                       1.0806043
    13   6 C       18   1 H                                       1.0809653
    14   6 C       19   1 H                                       1.0801863
    20   6 C       21   1 H                                       1.0939923
    20   6 C       22   1 H                                       1.0936367
    20   6 C       23   6 C                                       1.5224581
    23   6 C       24   1 H                                       1.0870889
    23   6 C       25   1 H                                       1.0886456
    23   6 C       26   1 H                                       1.0890724

 * 3 distinct bonds (by element types)

   Z      Z             #   av. dist./Å        max./Å        min./Å
   1 H    6 C          15     1.0871700     1.0942859     1.0792855
   6 C    6 C           8     1.4205614     1.5243826     1.3808381
   6 C   15 P           1     1.8634342     1.8634342     1.8634342

           -------------------------------------------------
          |               Frequency Printout                |
           -------------------------------------------------
 projected vibrational frequencies (cm⁻¹)
eigval :       -0.00    -0.00    -0.00    -0.00     0.00     0.00
eigval :       24.96    64.50    85.26   113.39   161.59   170.51
eigval :      201.54   222.44   248.22   262.84   314.40   361.35
eigval :      366.32   392.79   473.25   585.81   648.65   659.32
eigval :      679.19   690.28   736.61   760.64   769.38   872.82
eigval :      896.05   925.81   931.62   967.51   982.29   995.09
eigval :     1013.57  1017.29  1063.78  1077.68  1084.86  1115.14
eigval :     1123.36  1181.74  1203.78  1222.76  1230.79  1250.36
eigval :     1268.45  1280.25  1317.25  1407.86  1412.82  1421.43
eigval :     1448.90  1451.32  1461.78  1496.55  1499.40  1504.99
eigval :     1506.49  1578.18  1589.22  2936.20  2941.18  2951.20
eigval :     2955.38  3011.72  3012.41  3023.58  3025.41  3034.24
eigval :     3041.04  3054.57  3067.44  3074.38  3086.79  3093.53
 reduced masses (amu)
   1: 10.67   2: 13.99   3: 14.19   4: 13.14   5: 14.35   6: 11.57   7:  9.89   8:  8.79
   9:  9.00  10:  9.80  11:  6.58  12:  7.01  13:  7.20  14:  6.84  15:  6.55  16:  8.75
  17: 13.05  18: 12.86  19: 10.50  20: 18.41  21: 12.84  22: 11.18  23: 13.85  24: 11.31
  25: 14.05  26: 12.62  27:  3.34  28:  6.95  29:  4.74  30:  3.30  31:  3.57  32:  4.14
  33:  2.97  34: 10.40  35:  3.25  36:  3.14  37:  3.63  38:  4.42  39:  9.54  40:  9.07
  41:  8.30  42:  8.49  43:  4.39  44:  1.31  45:  1.90  46:  3.63  47:  3.26  48:  4.24
  49:  4.13  50:  3.44  51: 11.94  52:  2.90  53:  2.94  54:  8.54  55:  2.66  56:  3.94
  57:  5.69  58:  1.53  59:  1.56  60:  1.56  61:  1.54  62: 11.43  63: 11.44  64:  1.93
  65:  1.98  66:  1.52  67:  1.51  68:  1.82  69:  1.87  70:  1.90  71:  1.71  72:  1.43
  73:  1.57  74:  1.80  75:  1.77  76:  1.83  77:  1.88  78:  1.86
 IR intensities (km·mol⁻¹)
   1:  0.09   2:  0.05   3:  0.10   4:  0.04   5:  0.10   6:  0.04   7:  0.11   8:  0.02
   9:  0.09  10:  0.36  11:  0.17  12:  0.14  13:  0.20  14:  0.10  15:  0.12  16:  0.54
  17:  0.22  18:  0.67  19:  0.19  20:  0.81  21:  5.43  22:  0.05  23: 11.85  24:  8.49
  25:  8.87  26: 11.68  27: 19.47  28: 37.19  29: 17.18  30:  0.10  31:  0.10  32:  0.09
  33:  0.00  34:  1.74  35:  4.27  36:  2.40  37:  0.84  38:  4.85  39:  6.27  40:  7.83
  41:  0.22  42:  1.42  43:  0.03  44:  0.02  45:  0.65  46:  2.29  47:  2.31  48:  6.70
  49:  7.36  50:  0.63  51:  0.37  52:  1.88  53:  2.08  54:  0.84  55:  0.36  56:  0.52
  57:  0.04  58:  1.95  59:  1.68  60:  1.36  61:  1.46  62:  0.37  63:  4.45  64:  2.40
  65: 39.38  66: 15.03  67: 22.95  68: 49.16  69: 45.82  70: 23.04  71: 30.52  72: 16.42
  73: 24.15  74: 16.25  75:  8.36  76: 49.16  77: 78.74  78: 23.79
 Raman intensities (Ä⁴*amu⁻¹)
   1:  0.00   2:  0.00   3:  0.00   4:  0.00   5:  0.00   6:  0.00   7:  0.00   8:  0.00
   9:  0.00  10:  0.00  11:  0.00  12:  0.00  13:  0.00  14:  0.00  15:  0.00  16:  0.00
  17:  0.00  18:  0.00  19:  0.00  20:  0.00  21:  0.00  22:  0.00  23:  0.00  24:  0.00
  25:  0.00  26:  0.00  27:  0.00  28:  0.00  29:  0.00  30:  0.00  31:  0.00  32:  0.00
  33:  0.00  34:  0.00  35:  0.00  36:  0.00  37:  0.00  38:  0.00  39:  0.00  40:  0.00
  41:  0.00  42:  0.00  43:  0.00  44:  0.00  45:  0.00  46:  0.00  47:  0.00  48:  0.00
  49:  0.00  50:  0.00  51:  0.00  52:  0.00  53:  0.00  54:  0.00  55:  0.00  56:  0.00
  57:  0.00  58:  0.00  59:  0.00  60:  0.00  61:  0.00  62:  0.00  63:  0.00  64:  0.00
  65:  0.00  66:  0.00  67:  0.00  68:  0.00  69:  0.00  70:  0.00  71:  0.00  72:  0.00
  73:  0.00  74:  0.00  75:  0.00  76:  0.00  77:  0.00  78:  0.00
 output can be read by thermo (or use thermo option).
 writing <g98.out> molden fake output.
 recommended (thermochemical) frequency scaling factor: 1.0
           -------------------------------------------------
          |             Thermodynamic Functions             |
           -------------------------------------------------

Refinement of some symmetry elements was terminated before convergence was reached.
Some symmetry elements may remain unidentified.
Molecule has no symmetry elements
It seems to be the C1 point group
c1  symmetry found (for desy threshold:  0.10E+00) used in thermo

          ...................................................
          :                      SETUP                      :
          :.................................................:
          :  # frequencies                          72      :
          :  # imaginary freq.                       0      :
          :  linear?                             false      :
          :  only rotor calc.                    false      :
          :  symmetry                               c1      :
          :  rotational number                       1      :
          :  scaling factor                  1.0000000      :
          :  rotor cutoff                   50.0000000 cm⁻¹ :
          :  imag. cutoff                  -20.0000000 cm⁻¹ :
          :.................................................:

    mode    ω/cm⁻¹     T·S(HO)/kcal·mol⁻¹    T·S(FR)/kcal·mol⁻¹   T·S(vib)
   ------------------------------------------------------------------------
       1     24.96    -1.84675 (  5.85%)    -1.26201 ( 94.15%)    -1.29622
       2     64.50    -1.28641 ( 73.47%)    -0.98101 ( 26.53%)    -1.20537
       3     85.26    -1.12282 ( 89.42%)    -0.89836 ( 10.58%)    -1.09908
       4    113.39    -0.95709 ( 96.36%)    -0.81393 (  3.64%)    -0.95188
       5    161.59    -0.75466 ( 99.09%)    -0.70901 (  0.91%)    -0.75425
       6    170.51    -0.72446 ( 99.27%)    -0.69308 (  0.73%)    -0.72423
       7    201.54    -0.63177 ( 99.62%)    -0.64356 (  0.38%)    -0.63181
       8    222.44    -0.57816 ( 99.75%)    -0.61434 (  0.25%)    -0.57826
       9    248.22    -0.51974 ( 99.84%)    -0.58186 (  0.16%)    -0.51984
      10    262.84    -0.48980 ( 99.87%)    -0.56490 (  0.13%)    -0.48990
   ------------------------------------------------------------------------

   temp. (K)  partition function   enthalpy   heat capacity  entropy
                                   cal/mol     cal/K/mol   cal/K/mol   J/K/mol
 298.15  VIB  0.143E+05             6119.393     39.484     37.324
         ROT  0.115E+07              888.752      2.981     30.720
         INT  0.165E+11             7008.145     42.464     68.044
         TR   0.207E+28             1481.254      4.968     41.214
         TOT                        8489.3989    47.4325   109.2577   457.1344

       T/K    H(0)-H(T)+PV         H(T)/Eh          T*S/Eh         G(T)/Eh
   ------------------------------------------------------------------------
    298.15    0.135287E-01    0.232469E+00    0.519119E-01    0.180557E+00
   ------------------------------------------------------------------------

         :::::::::::::::::::::::::::::::::::::::::::::::::::::
         ::                  THERMODYNAMIC                  ::
         :::::::::::::::::::::::::::::::::::::::::::::::::::::
         :: total free energy         -31.375110636665 Eh   ::
         ::.................................................::
         :: total energy              -31.555667344569 Eh   ::
         :: zero point energy           0.218939871916 Eh   ::
         :: G(RRHO) w/o ZPVE           -0.038383164012 Eh   ::
         :: G(RRHO) contrib.            0.180556707904 Eh   ::
         :::::::::::::::::::::::::::::::::::::::::::::::::::::

optimized geometry written to: xtbopt.xyz


           -------------------------------------------------
          | TOTAL ENERGY              -31.555667344569 Eh   |
          | TOTAL ENTHALPY            -31.323198754421 Eh   |
          | TOTAL FREE ENERGY         -31.375110636665 Eh   |
          | GRADIENT NORM               0.000018879990 Eh/α |
          | HOMO-LUMO GAP               3.648624393767 eV   |
           -------------------------------------------------

------------------------------------------------------------------------
 * finished run on 2025/07/14 at 11:33:43.340     
------------------------------------------------------------------------
 total:
 * wall-time:     0 d,  0 h,  0 min,  8.777 sec
 *  cpu-time:     0 d,  0 h,  1 min, 32.064 sec
 * ratio c/w:    10.489 speedup
 SCF:
 * wall-time:     0 d,  0 h,  0 min,  0.089 sec
 *  cpu-time:     0 d,  0 h,  0 min,  1.058 sec
 * ratio c/w:    11.929 speedup
 ANC optimizer:
 * wall-time:     0 d,  0 h,  0 min,  5.380 sec
 *  cpu-time:     0 d,  0 h,  1 min,  4.255 sec
 * ratio c/w:    11.944 speedup
 analytical hessian:
 * wall-time:     0 d,  0 h,  0 min,  3.299 sec
 *  cpu-time:     0 d,  0 h,  0 min, 26.651 sec
 * ratio c/w:     8.078 speedup

