
                                 *****************
                                 * O   R   C   A *
                                 *****************

                                            #,                                       
                                            ###                                      
                                            ####                                     
                                            #####                                    
                                            ######                                   
                                           ########,                                 
                                     ,,################,,,,,                         
                               ,,#################################,,                 
                          ,,##########################################,,             
                       ,#########################################, ''#####,          
                    ,#############################################,,   '####,        
                  ,##################################################,,,,####,       
                ,###########''''           ''''###############################       
              ,#####''   ,,,,##########,,,,          '''####'''          '####       
            ,##' ,,,,###########################,,,                        '##       
           ' ,,###''''                  '''############,,,                           
         ,,##''                                '''############,,,,        ,,,,,,###''
      ,#''                                            '''#######################'''  
     '                                                          ''''####''''         
             ,#######,   #######,   ,#######,      ##                                
            ,#'     '#,  ##    ##  ,#'     '#,    #''#        ,####,   ,####,        
            ##       ##  ##   ,#'  ##            #'  '#       #'       #'  '#        
            ##       ##  #######   ##           ,######,      #####,   #    #        
            '#,     ,#'  ##    ##  '#,     ,#' ,#      #,     #,   #   #,  ,#        
             '#######'   ##     ##  '#######'  #'      '#     '####' # '####'        



                #########################################################
                #                        -***-                          #
                #          Department of theory and spectroscopy        #
                #                                                       #
                #                      Frank Neese                      #
                #                                                       #
                #     Directorship, Architecture, Infrastructure        #
                #                    SHARK, DRIVERS                     #
                #        Core code/Algorithms in most modules           #
                #                                                       #
                #        Max Planck Institute fuer Kohlenforschung      #
                #                Kaiser Wilhelm Platz 1                 #
                #                 D-45470 Muelheim/Ruhr                 #
                #                      Germany                          #
                #                                                       #
                #                  All rights reserved                  #
                #                        -***-                          #
                #########################################################


                         Program Version 6.0.1  -  RELEASE   -


 With contributions from (in alphabetic order):
[Max-Planck-Institut fuer Kohlenforschung]                               
  Daniel Aravena         : Magnetic Suceptibility                        
  Michael Atanasov       : Ab Initio Ligand Field Theory (pilot matlab implementation)
  Alexander A. Auer      : GIAO ZORA, VPT2 properties, NMR spectrum      
  Ute Becker             : All parallelization in ORCA, NUMFREQ, NUMCALC 
  Giovanni Bistoni       : ED, misc. LED, open-shell LED, HFLD           
  Martin Brehm           : Molecular dynamics                            
  Dmytro Bykov           : pre 5.0 version of the SCF Hessian            
  Marcos Casanova-Páez   : Triplet and SCS-CIS(D). UHF-(DLPNO)-IP/EA/STEOM-CCSD. UHF-CVS-IP/STEOM-CCSD   
  Vijay G. Chilkuri      : MRCI spin determinant printing, contributions to CSF-ICE 
  Pauline Colinet        : FMM embedding                                 
  Dipayan Datta          : RHF DLPNO-CCSD density                        
  Achintya Kumar Dutta   : EOM-CC, STEOM-CC                              
  Nicolas Foglia         : Exact transition moments, OPA infrastructure, MCD improvements    
  Dmitry Ganyushin       : Spin-Orbit,Spin-Spin,Magnetic field MRCI      
  Miquel Garcia-Rates    : C-PCM and meta-GGA Hessian, CCSD/C-PCM, Gaussian charge scheme 
  Tiago L. C. Gouveia    : GS-ROHF, GS-ROCIS                             
  Yang Guo               : DLPNO-NEVPT2, F12-NEVPT2, CIM, IAO-localization        
  Andreas Hansen         : Spin unrestricted coupled pair/coupled cluster methods 
  Ingolf Harden          : AUTO-CI MPn and infrastructure                
  Benjamin Helmich-Paris : MC-RPA, TRAH-(SCF,CASSCF), AVAS, COSX integrals, SCF dyn. polar. 
  Lee Huntington         : MR-EOM, pCC                                   
  Robert Izsak           : Overlap fitted RIJCOSX, COSX-SCS-MP3, EOM     
  Riya Kayal             : Wick's Theorem for AUTO-CI, AUTO-CI UHF-CCSDT 
  Emily Kempfer          : AUTO-CI, RHF CISDT and CCSDT                  
  Christian Kollmar      : KDIIS, OOCD, Brueckner-CCSD(T), CCSD density, CASPT2, CASPT2-K, improved NEVPT2 
  Axel Koslowski         : Symmetry handling                             
  Simone Kossmann        : meta-GGA functionals, TD-DFT gradient, OOMP2, (MP2 Hessian; deprecated post 5.0) 
  Lucas Lang             : DCDCAS                                        
  Marvin Lechner         : AUTO-CI (C++ implementation), FIC-MRCC        
  Spencer Leger          : CASSCF response                               
  Dagmar Lenk            : GEPOL surface, SMD, ORCA-2-JSON               
  Dimitrios Liakos       : Extrapolation schemes; Compound Job, initial MDCI parallelization 
  Dimitrios Manganas     : Further ROCIS development; embedding schemes. LFT, Crystal Embedding 
  Dimitrios Pantazis     : SARC Basis sets                               
  Anastasios Papadopoulos: AUTO-CI, single reference methods and gradients 
  Taras Petrenko         : pre 6.0 DFT Hessian and TD-DFT gradient, (ASA, deprecated), ECA, 1-Electron XAS/XES, NRVS 
  Peter Pinski           : DLPNO-MP2, DLPNO-MP2 Gradient                 
  Christoph Reimann      : Effective Core Potentials                     
  Marius Retegan         : Local ZFS, SOC                                
  Christoph Riplinger    : Optimizer, TS searches, QM/MM, DLPNO-CCSD(T), (RO)-DLPNO pert. Triples 
  Michael Roemelt        : Original ROCIS implementation                 
  Masaaki Saitow         : Open-shell DLPNO-CCSD energy and density      
  Barbara Sandhoefer     : DKH picture change effects                    
  Kantharuban Sivalingam : CASSCF convergence/infrastructure, NEVPT2 and variants, FIC-MRCI 
  Bernardo de Souza      : ESD, SOC TD-DFT                               
  Georgi L. Stoychev     : AutoAux, RI-MP2 NMR, DLPNO-MP2 response, X2C  
  Van Anh Tran           : RI-MP2 g-tensors                              
  Willem Van den Heuvel  : Paramagnetic NMR                              
  Zikuan Wang            : NOTCH, Electric field optimization            
  Frank Wennmohs         : Technical directorship and infrastructure     
  Hang Xu                : AUTO-CI-Response properties                   
                                                                         
[FACCTs GmbH]                                                            
  Markus Bursch, Miquel Garcia-Rates, Christoph Riplinger, Bernardo de Souza, Georgi L. Stoychev 
                                                                 
  APM, Basis sets (HGBS, AHGBS, def-TZVP (Ac-Lr), def2-XVPD (La-Lu)), CI-OPT, improved COSX, DLPNO-Multilevel,           
  DOCKER, DRACO, updates on ESD, GOAT, IRC, LR-CPCM, MBIS, meta-GGA TD-DFT gradient, ML-optimized integration grids, 
  MM, NACMEs, nearIR, NEB, NEB-TS, NL-DFT gradient (VV10), 2- and 3-layer-ONIOM, interface openCOSMO-RS, QMMM,   
  Crystal-QMMM, SF, symmetry and pop. for TD-DFT, r2SCAN hybrids, SOLVATOR                                   
                                                                         
[Other institutions]                                                     
  V. Asgeirsson          : NEB                                           
  Christoph Bannwarth    : sTDA-DFT, sTD-DFT, PBEh-3c, B97-3c, D3        
  Sebastian Ehlert       : rSCAN, r2SCAN, r2SCAN-3c, D4, dhf basis sets  
  Marvin Friede          : D4 for Fr, Ra, Ac-Lr                          
  Lars Goerigk           : TD-DFT with DH, B97 family of functionals     
  Stefan Grimme          : VdW corrections, initial TS optimization, DFT functionals, gCP, sTDA/sTD-DF 
  Waldemar Hujo          : DFT-NL                                        
  H. Jonsson             : NEB                                           
  Holger Kruse           : gCP                                           
  Marcel Mueller         : wB97X-3c, vDZP basis set                      
  Hagen Neugebauer       : wr2SCAN                                       
  Tobias Risthaus        : range-separated hybrid DFT                    
  Lukas Wittmann         : regularized MP2, r2SCAN double-hybrids, wr2SCAN        
                                                                         
We gratefully acknowledge several colleagues who have allowed us to      
interface, adapt or use parts of their codes:                            
  Ed Valeev, F. Pavosevic, A. Kumar             : LibInt (2-el integral package), F12 methods 
  Garnet Chan, S. Sharma, J. Yang, R. Olivares  : DMRG                   
  Ulf Ekstrom                                   : XCFun DFT Library      
  Mihaly Kallay                                 : mrcc  (arbitrary order and MRCC methods)
  Frank Weinhold                                : gennbo (NPA and NBO analysis)           
  Simon Mueller                                 : openCOSMO-RS                            
  Christopher J. Cramer and Donald G. Truhlar   : smd solvation model                     
  S Lehtola, MJT Oliveira, MAL Marques          : LibXC Library                           
  Liviu Ungur et al                             : ANISO software                          


 Your calculation uses the libint2 library for the computation of 2-el integrals
 For citations please refer to: http://libint.valeyev.net

 Your ORCA version has been built with support for libXC version: 6.2.2
 For citations please refer to: https://libxc.gitlab.io

 This ORCA versions uses:
   CBLAS   interface :  Fast vector & matrix operations
   LAPACKE interface :  Fast linear algebra routines
   SCALAPACK package :  Parallel linear algebra routines
   Shared memory     :  Shared parallel matrices
   BLAS/LAPACK       :  OpenBLAS 0.3.27  USE64BITINT DYNAMIC_ARCH NO_AFFINITY Haswell SINGLE_THREADED
        Core in use  :  Haswell
   Copyright (c) 2011-2014, The OpenBLAS Project


NOTE: MaxCore=1000 MB was set to SCF,MP2,MDCI,CIPSI,MRCI and CIS
      => If you want to overwrite this, your respective input block should be placed after the MaxCore statement
Your calculation utilizes the atom-pairwise dispersion correction
with the Becke-Johnson damping scheme (D3BJ)


Warning: RI is on but no J-basis has been assigned. Assigning Def2/J (nothing to worry about!)
================================================================================

----- Orbital basis set information -----
Your calculation utilizes the basis: def2-TZVP
   F. Weigend and R. Ahlrichs, Phys. Chem. Chem. Phys. 7, 3297 (2005).

----- AuxJ basis set information -----
Your calculation utilizes the auxiliary basis: def2/J
   F. Weigend, Phys. Chem. Chem. Phys. 8, 1057 (2006).

================================================================================
                                        WARNINGS
                       Please study these warnings very carefully!
================================================================================


WARNING: Geometry Optimization
  ===> : Switching off AutoStart
         For restart on a previous wavefunction, please use MOREAD

================================================================================
                                       INPUT FILE
================================================================================
NAME = m1_00_PEt2Ph-PBE0-D3-TZ.inp
|  1> # put your comments here
|  2> %pal nprocs 6 end
|  3> ! PBE0 def2-tzvp OPT D3BJ FREQ DEFGRID3 NOTRAH CHELPG
|  4> %scf MaxIter 800 end
|  5> %output
|  6> Print [P_Hirshfeld] 1
|  7> end
|  8> %MaxCore 1000
|  9> %geom
| 10> MaxIter 3000
| 11>  TolE 1e-6 #TolE 5e-6 Energy change (a.u.)
| 12>  TolRMSG 3e-5 #TolRMSG 1e-4 RMS gradient (a.u.)
| 13>  TolMaxG 1e-4 #TolMaxG 3e-3 Max. element of gradient (a.u.)
| 14>  TolRMSD 2e-3 #TolRMSD 2e-3 RMS displacement (a.u.)
| 15>  TolMaxD 4e-3 #TolMaxD 4e-3 Max. displacement (a.u.)
| 16> end
| 17> * xyz 0 1
| 18>  P      1.586357512      0.000000057     -2.874914236
| 19>  C      2.941764958     -0.782545460     -2.211217642
| 20>  H      3.845047089     -0.466903262     -2.746907439
| 21>  H      3.072500226     -0.466903262     -1.169204947
| 22>  C      2.833316538     -2.316789992     -2.264321118
| 23>  H      2.733209127     -2.666994685     -3.296714368
| 24>  H      1.956414055     -2.666994685     -1.710336144
| 25>  H      3.720862611     -2.788601792     -1.829720211
| 26>  C      0.230950066     -0.782545460     -2.211217642
| 27>  C     -0.875084084     -1.115131247     -3.011471680
| 28>  C      0.184874230     -1.115131247     -0.846814812
| 29>  C     -1.986542739     -1.756750516     -2.467589050
| 30>  C     -0.926299579     -1.756750516     -0.302350466
| 31>  C     -2.017438313     -2.080654196     -1.110258876
| 32>  H     -0.861411054     -0.867751266     -4.068392017
| 33>  H      1.028149865     -0.867751266     -0.209512880
| 34>  H     -2.830111120     -2.004074338     -3.105735107
| 35>  H     -0.939485321     -2.004074338      0.755318736
| 36>  H     -2.883304756     -2.580562844     -0.686273741
| 37>  C      1.586357512      1.565090248     -2.211218000
| 38>  H      2.464704512      2.114667194     -2.570361276
| 39>  H      0.708010512      2.114667194     -2.570361276
| 40>  C      1.586357512      1.563147457     -0.672230167
| 41>  H      2.469534512      1.047881650     -0.281077795
| 42>  H      0.703180512      1.047881650     -0.281077795
| 43>  H      1.586357512      2.584862197     -0.278121876
| 44> *
| 45> 
| 46> 
| 47> 
| 48> 
| 49>                          ****END OF INPUT****
================================================================================

                       *****************************
                       * Geometry Optimization Run *
                       *****************************

Geometry optimization settings:
Update method            Update   .... BFGS
Choice of coordinates    CoordSys .... (2022) Redundant Internals
Initial Hessian          InHess   .... Almloef's Model
Max. no of cycles        MaxIter  .... 3000

Convergence Tolerances:
Energy Change            TolE     ....  1.0000e-06 Eh
Max. Gradient            TolMAXG  ....  1.0000e-04 Eh/bohr
RMS Gradient             TolRMSG  ....  3.0000e-05 Eh/bohr
Max. Displacement        TolMAXD  ....  4.0000e-03 bohr
RMS Displacement         TolRMSD  ....  2.0000e-03 bohr
Strict Convergence                .... False

------------------------------------------------------------------------------
                        ORCA OPTIMIZATION COORDINATE SETUP
------------------------------------------------------------------------------

The optimization will be done in redundant internal coordinates (2022)
Making redundant internal coordinates   ...  (2022 redundants) done
Evaluating the initial hessian          ...  (Almloef) done
Evaluating the coordinates              ...  done
Calculating the B-matrix                .... done
Calculating the G-matrix                .... done
Diagonalizing the G-matrix              .... done
Small eigenvalue found = 1.166e-02
Small eigenvalue found = 1.322e-02
Small eigenvalue found = 2.391e-02
The first mode is                       ....   49
The number of degrees of freedom        ....   72

    -----------------------------------------------------------------
                    Redundant Internal Coordinates


    -----------------------------------------------------------------
         Definition                    Initial Value    Approx d2E/dq
    -----------------------------------------------------------------
      1. B(C   1,P   0)                  1.7000         0.672430   
      2. B(H   2,C   1)                  1.0966         0.351485   
      3. B(H   3,C   1)                  1.0966         0.351485   
      4. B(C   4,C   1)                  1.5390         0.361440   
      5. B(H   5,C   4)                  1.0948         0.353857   
      6. B(H   6,C   4)                  1.0948         0.353857   
      7. B(H   7,C   4)                  1.0951         0.353429   
      8. B(C   8,P   0)                  1.7000         0.672430   
      9. B(C   9,C   8)                  1.4051         0.591062   
     10. B(C  10,C   8)                  1.4051         0.591062   
     11. B(C  11,C   9)                  1.3939         0.616017   
     12. B(C  12,C  10)                  1.3939         0.616017   
     13. B(C  13,C  12)                  1.3958         0.611660   
     14. B(C  13,C  11)                  1.3958         0.611660   
     15. B(H  14,C   9)                  1.0856         0.366007   
     16. B(H  15,C  10)                  1.0856         0.366007   
     17. B(H  16,C  11)                  1.0863         0.365053   
     18. B(H  17,C  12)                  1.0863         0.365053   
     19. B(H  18,C  13)                  1.0860         0.365430   
     20. B(C  19,P   0)                  1.7000         0.672430   
     21. B(H  20,C  19)                  1.0966         0.351485   
     22. B(H  21,C  19)                  1.0966         0.351485   
     23. B(C  22,C  19)                  1.5390         0.361440   
     24. B(H  23,C  22)                  1.0948         0.353857   
     25. B(H  24,C  22)                  1.0948         0.353857   
     26. B(H  25,C  22)                  1.0951         0.353429   
     27. A(C   1,P   0,C   8)          105.7458         0.510397   
     28. A(C   1,P   0,C  19)          105.7458         0.510397   
     29. A(C   8,P   0,C  19)          105.7458         0.510397   
     30. A(P   0,C   1,H   3)          109.4834         0.379047   
     31. A(H   3,C   1,C   4)          109.1560         0.321290   
     32. A(H   2,C   1,C   4)          109.1560         0.321290   
     33. A(H   2,C   1,H   3)          106.4475         0.288639   
     34. A(P   0,C   1,H   2)          109.4834         0.379047   
     35. A(P   0,C   1,C   4)          112.9077         0.426484   
     36. A(H   6,C   4,H   7)          108.0920         0.289193   
     37. A(C   1,C   4,H   7)          111.0209         0.321580   
     38. A(H   5,C   4,H   7)          108.0920         0.289193   
     39. A(C   1,C   4,H   5)          110.9706         0.321644   
     40. A(C   1,C   4,H   6)          110.9706         0.321644   
     41. A(H   5,C   4,H   6)          107.5555         0.289248   
     42. A(P   0,C   8,C  10)          120.9441         0.466223   
     43. A(P   0,C   8,C   9)          120.9441         0.466223   
     44. A(C   9,C   8,C  10)          118.1119         0.426680   
     45. A(C  11,C   9,H  14)          119.6595         0.353496   
     46. A(C   8,C   9,H  14)          119.3831         0.351032   
     47. A(C   8,C   9,C  11)          120.9574         0.429855   
     48. A(C  12,C  10,H  15)          119.6595         0.353496   
     49. A(C   8,C  10,H  15)          119.3831         0.351032   
     50. A(C   8,C  10,C  12)          120.9574         0.429855   
     51. A(C  13,C  11,H  16)          120.0828         0.352916   
     52. A(C   9,C  11,H  16)          119.6574         0.353340   
     53. A(C   9,C  11,C  13)          120.2599         0.432508   
     54. A(C  13,C  12,H  17)          120.0828         0.352916   
     55. A(C  10,C  12,H  17)          119.6574         0.353340   
     56. A(C  10,C  12,C  13)          120.2599         0.432508   
     57. A(C  12,C  13,H  18)          120.2732         0.352978   
     58. A(C  11,C  13,H  18)          120.2732         0.352978   
     59. A(C  11,C  13,C  12)          119.4536         0.431957   
     60. A(H  20,C  19,C  22)          109.1560         0.321290   
     61. A(P   0,C  19,C  22)          112.9077         0.426484   
     62. A(H  20,C  19,H  21)          106.4475         0.288639   
     63. A(P   0,C  19,H  21)          109.4834         0.379047   
     64. A(H  21,C  19,C  22)          109.1560         0.321290   
     65. A(P   0,C  19,H  20)          109.4834         0.379047   
     66. A(H  24,C  22,H  25)          108.0920         0.289193   
     67. A(H  23,C  22,H  25)          108.0920         0.289193   
     68. A(C  19,C  22,H  25)          111.0209         0.321580   
     69. A(H  23,C  22,H  24)          107.5555         0.289248   
     70. A(C  19,C  22,H  24)          110.9706         0.321644   
     71. A(C  19,C  22,H  23)          110.9706         0.321644   
     72. D(C   4,C   1,P   0,C   8)     46.7693         0.007884   
     73. D(H   3,C   1,P   0,C   8)    -75.0592         0.007884   
     74. D(H   3,C   1,P   0,C  19)     36.8070         0.007884   
     75. D(H   2,C   1,P   0,C   8)    168.5977         0.007884   
     76. D(H   2,C   1,P   0,C  19)    -79.5361         0.007884   
     77. D(H   5,C   4,C   1,H   2)    -62.2491         0.010475   
     78. D(H   5,C   4,C   1,P   0)     59.7637         0.010475   
     79. D(H   6,C   4,C   1,H   3)     62.2491         0.010475   
     80. D(H   6,C   4,C   1,P   0)    -59.7637         0.010475   
     81. D(H   5,C   4,C   1,H   3)   -178.2236         0.010475   
     82. D(H   6,C   4,C   1,H   2)    178.2236         0.010475   
     83. D(C  10,C   8,P   0,C   1)     43.2307         0.007347   
     84. D(C   9,C   8,P   0,C  19)    111.3646         0.007347   
     85. D(C  10,C   8,P   0,C  19)    -68.6354         0.007347   
     86. D(C   9,C   8,P   0,C   1)   -136.7693         0.007347   
     87. D(H  14,C   9,C   8,P   0)      0.0000         0.024046   
     88. D(C  11,C   9,C   8,C  10)      0.0000         0.024046   
     89. D(C  11,C   9,C   8,P   0)   -180.0000         0.024046   
     90. D(H  14,C   9,C   8,C  10)   -180.0000         0.024046   
     91. D(H  15,C  10,C   8,C   9)   -180.0000         0.024046   
     92. D(H  15,C  10,C   8,P   0)      0.0000         0.024046   
     93. D(C  12,C  10,C   8,C   9)     -0.0000         0.024046   
     94. D(C  12,C  10,C   8,P   0)    180.0000         0.024046   
     95. D(H  16,C  11,C   9,H  14)      0.0000         0.026238   
     96. D(H  16,C  11,C   9,C   8)   -180.0000         0.026238   
     97. D(C  13,C  11,C   9,H  14)    180.0000         0.026238   
     98. D(C  13,C  11,C   9,C   8)     -0.0000         0.026238   
     99. D(H  17,C  12,C  10,H  15)     -0.0000         0.026238   
    100. D(H  17,C  12,C  10,C   8)    180.0000         0.026238   
    101. D(C  13,C  12,C  10,H  15)   -180.0000         0.026238   
    102. D(C  13,C  12,C  10,C   8)      0.0000         0.026238   
    103. D(H  18,C  13,C  12,C  10)    180.0000         0.025847   
    104. D(C  11,C  13,C  12,H  17)   -180.0000         0.025847   
    105. D(C  11,C  13,C  12,C  10)     -0.0000         0.025847   
    106. D(H  18,C  13,C  11,H  16)     -0.0000         0.025847   
    107. D(H  18,C  13,C  11,C   9)   -180.0000         0.025847   
    108. D(C  12,C  13,C  11,H  16)    180.0000         0.025847   
    109. D(H  18,C  13,C  12,H  17)      0.0000         0.025847   
    110. D(C  12,C  13,C  11,C   9)      0.0000         0.025847   
    111. D(C  22,C  19,P   0,C   1)    -55.9331         0.007884   
    112. D(H  21,C  19,P   0,C   8)    -65.8954         0.007884   
    113. D(H  21,C  19,P   0,C   1)   -177.7615         0.007884   
    114. D(H  20,C  19,P   0,C   8)    177.7615         0.007884   
    115. D(H  20,C  19,P   0,C   1)     65.8954         0.007884   
    116. D(H  24,C  22,C  19,H  21)     62.2491         0.010475   
    117. D(H  24,C  22,C  19,H  20)    178.2236         0.010475   
    118. D(H  24,C  22,C  19,P   0)    -59.7637         0.010475   
    119. D(H  23,C  22,C  19,H  21)   -178.2236         0.010475   
    120. D(H  23,C  22,C  19,H  20)    -62.2491         0.010475   
    121. D(H  23,C  22,C  19,P   0)     59.7637         0.010475   
    -----------------------------------------------------------------

Number of atoms                         .... 26
Number of degrees of freedom            .... 121


         *************************************************************
         *                GEOMETRY OPTIMIZATION CYCLE   1            *
         *************************************************************
---------------------------------
CARTESIAN COORDINATES (ANGSTROEM)
---------------------------------
  P      1.586358    0.000000   -2.874914
  C      2.941765   -0.782545   -2.211218
  H      3.845047   -0.466903   -2.746907
  H      3.072500   -0.466903   -1.169205
  C      2.833317   -2.316790   -2.264321
  H      2.733209   -2.666995   -3.296714
  H      1.956414   -2.666995   -1.710336
  H      3.720863   -2.788602   -1.829720
  C      0.230950   -0.782545   -2.211218
  C     -0.875084   -1.115131   -3.011472
  C      0.184874   -1.115131   -0.846815
  C     -1.986543   -1.756751   -2.467589
  C     -0.926300   -1.756751   -0.302350
  C     -2.017438   -2.080654   -1.110259
  H     -0.861411   -0.867751   -4.068392
  H      1.028150   -0.867751   -0.209513
  H     -2.830111   -2.004074   -3.105735
  H     -0.939485   -2.004074    0.755319
  H     -2.883305   -2.580563   -0.686274
  C      1.586358    1.565090   -2.211218
  H      2.464705    2.114667   -2.570361
  H      0.708011    2.114667   -2.570361
  C      1.586358    1.563147   -0.672230
  H      2.469535    1.047882   -0.281078
  H      0.703181    1.047882   -0.281078
  H      1.586358    2.584862   -0.278122

----------------------------
CARTESIAN COORDINATES (A.U.)
----------------------------
  NO LB      ZA    FRAG     MASS         X           Y           Z
   0 P    15.0000    0    30.974    2.997781    0.000000   -5.432801
   1 C     6.0000    0    12.011    5.559130   -1.478797   -4.178596
   2 H     1.0000    0     1.008    7.266086   -0.882319   -5.190903
   3 H     1.0000    0     1.008    5.806184   -0.882319   -2.209477
   4 C     6.0000    0    12.011    5.354192   -4.378099   -4.278947
   5 H     1.0000    0     1.008    5.165017   -5.039890   -6.229887
   6 H     1.0000    0     1.008    3.697087   -5.039890   -3.232067
   7 H     1.0000    0     1.008    7.031411   -5.269694   -3.457670
   8 C     6.0000    0    12.011    0.436432   -1.478797   -4.178596
   9 C     6.0000    0    12.011   -1.653669   -2.107293   -5.690857
  10 C     6.0000    0    12.011    0.349362   -2.107293   -1.600248
  11 C     6.0000    0    12.011   -3.754022   -3.319777   -4.663068
  12 C     6.0000    0    12.011   -1.750453   -3.319777   -0.571360
  13 C     6.0000    0    12.011   -3.812406   -3.931867   -2.098085
  14 H     1.0000    0     1.008   -1.627831   -1.639812   -7.688147
  15 H     1.0000    0     1.008    1.942922   -1.639812   -0.395922
  16 H     1.0000    0     1.008   -5.348135   -3.787152   -5.868989
  17 H     1.0000    0     1.008   -1.775370   -3.787152    1.427346
  18 H     1.0000    0     1.008   -5.448656   -4.876557   -1.296869
  19 C     6.0000    0    12.011    2.997781    2.957592   -4.178596
  20 H     1.0000    0     1.008    4.657617    3.996142   -4.857279
  21 H     1.0000    0     1.008    1.337946    3.996142   -4.857279
  22 C     6.0000    0    12.011    2.997781    2.953921   -1.270331
  23 H     1.0000    0     1.008    4.666744    1.980209   -0.531160
  24 H     1.0000    0     1.008    1.328819    1.980209   -0.531160
  25 H     1.0000    0     1.008    2.997781    4.884682   -0.525574

--------------------------------
INTERNAL COORDINATES (ANGSTROEM)
--------------------------------
 P      0   0   0     0.000000000000     0.00000000     0.00000000
 C      1   0   0     1.699999999922     0.00000000     0.00000000
 H      2   1   0     1.096591156244   109.48340631     0.00000000
 H      2   1   3     1.096591156265   109.48340630   116.34309889
 C      2   1   3     1.538989058745   112.90765609   238.17154944
 H      5   2   1     1.094760541571   110.97059573    59.76365317
 H      5   2   1     1.094760541447   110.97059574   300.23634687
 H      5   2   1     1.095090112585   111.02090465   180.00000000
 C      1   2   3     1.699999999922   105.74579353   168.59774032
 C      9   1   2     1.405109024957   120.94406836   223.23071023
 C      9   1   2     1.405109024556   120.94406834    43.23071024
 C     10   9   1     1.393852195659   120.95738081   180.00000000
 C     11   9   1     1.393852195975   120.95738078   180.00000000
 C     13  11   9     1.395784127185   120.25987297     0.00000000
 H     10   9   1     1.085571004363   119.38314233     0.00000000
 H     11   9   1     1.085571003719   119.38314237     0.00000000
 H     12  10   9     1.086281306300   119.65735382   180.00000085
 H     13  11   9     1.086281306835   119.65735376   180.00000000
 H     14  13  11     1.086000344456   120.27318540   180.00000000
 C      1   2   3     1.699999999896   105.74584898   280.46389717
 H     20   1   2     1.096591156576   109.48340635    65.89539159
 H     20   1   2     1.096591156576   109.48340635   182.23849051
 C     20   1   2     1.538989059272   112.90765609   304.06694105
 H     23  20   1     1.094760541540   110.97059569    59.76365311
 H     23  20   1     1.094760541540   110.97059569   300.23634689
 H     23  20   1     1.095090112716   111.02090465   180.00000000

---------------------------
INTERNAL COORDINATES (A.U.)
---------------------------
 P      0   0   0     0.000000000000     0.00000000     0.00000000
 C      1   0   0     3.212534427520     0.00000000     0.00000000
 H      2   1   0     2.072256966181   109.48340631     0.00000000
 H      2   1   3     2.072256966221   109.48340630   116.34309889
 C      2   1   3     2.908267844129   112.90765609   238.17154944
 H      5   2   1     2.068797605793   110.97059573    59.76365317
 H      5   2   1     2.068797605558   110.97059574   300.23634687
 H      5   2   1     2.069420404751   111.02090465   180.00000000
 C      1   2   3     3.212534427520   105.74579353   168.59774032
 C      9   1   2     2.655271245470   120.94406836   223.23071023
 C      9   1   2     2.655271244713   120.94406834    43.23071024
 C     10   9   1     2.633998920960   120.95738081   180.00000000
 C     11   9   1     2.633998921558   120.95738078   180.00000000
 C     13  11   9     2.637649742454   120.25987297     0.00000000
 H     10   9   1     2.051431897171   119.38314233     0.00000000
 H     11   9   1     2.051431895955   119.38314237     0.00000000
 H     12  10   9     2.052774173305   119.65735382   180.00000085
 H     13  11   9     2.052774174317   119.65735376   180.00000000
 H     14  13  11     2.052243232367   120.27318540   180.00000000
 C      1   2   3     3.212534427469   105.74584898   280.46389717
 H     20   1   2     2.072256966808   109.48340635    65.89539159
 H     20   1   2     2.072256966808   109.48340635   182.23849051
 C     20   1   2     2.908267845125   112.90765609   304.06694105
 H     23  20   1     2.068797605734   110.97059569    59.76365311
 H     23  20   1     2.068797605734   110.97059569   300.23634689
 H     23  20   1     2.069420404998   111.02090465   180.00000000

---------------------
BASIS SET INFORMATION
---------------------
There are 3 groups of distinct atoms

 Group   1 Type P   : 14s9p3d1f contracted to 5s5p2d1f pattern {73211/51111/21/1}
 Group   2 Type C   : 11s6p2d1f contracted to 5s3p2d1f pattern {62111/411/11/1}
 Group   3 Type H   : 5s1p contracted to 3s1p pattern {311/1}

Atom   0P    basis set group =>   1
Atom   1C    basis set group =>   2
Atom   2H    basis set group =>   3
Atom   3H    basis set group =>   3
Atom   4C    basis set group =>   2
Atom   5H    basis set group =>   3
Atom   6H    basis set group =>   3
Atom   7H    basis set group =>   3
Atom   8C    basis set group =>   2
Atom   9C    basis set group =>   2
Atom  10C    basis set group =>   2
Atom  11C    basis set group =>   2
Atom  12C    basis set group =>   2
Atom  13C    basis set group =>   2
Atom  14H    basis set group =>   3
Atom  15H    basis set group =>   3
Atom  16H    basis set group =>   3
Atom  17H    basis set group =>   3
Atom  18H    basis set group =>   3
Atom  19C    basis set group =>   2
Atom  20H    basis set group =>   3
Atom  21H    basis set group =>   3
Atom  22C    basis set group =>   2
Atom  23H    basis set group =>   3
Atom  24H    basis set group =>   3
Atom  25H    basis set group =>   3
---------------------------------
AUXILIARY/J BASIS SET INFORMATION
---------------------------------
There are 3 groups of distinct atoms

 Group   1 Type P   : 14s5p5d2f1g contracted to 8s4p3d1f1g pattern {71111111/2111/311/2/1}
 Group   2 Type C   : 12s5p4d2f1g contracted to 6s4p3d1f1g pattern {711111/2111/211/2/1}
 Group   3 Type H   : 5s2p1d contracted to 3s1p1d pattern {311/2/1}

Atom   0P    basis set group =>   1
Atom   1C    basis set group =>   2
Atom   2H    basis set group =>   3
Atom   3H    basis set group =>   3
Atom   4C    basis set group =>   2
Atom   5H    basis set group =>   3
Atom   6H    basis set group =>   3
Atom   7H    basis set group =>   3
Atom   8C    basis set group =>   2
Atom   9C    basis set group =>   2
Atom  10C    basis set group =>   2
Atom  11C    basis set group =>   2
Atom  12C    basis set group =>   2
Atom  13C    basis set group =>   2
Atom  14H    basis set group =>   3
Atom  15H    basis set group =>   3
Atom  16H    basis set group =>   3
Atom  17H    basis set group =>   3
Atom  18H    basis set group =>   3
Atom  19C    basis set group =>   2
Atom  20H    basis set group =>   3
Atom  21H    basis set group =>   3
Atom  22C    basis set group =>   2
Atom  23H    basis set group =>   3
Atom  24H    basis set group =>   3
Atom  25H    basis set group =>   3


           ************************************************************
           *        Program running with 6 parallel MPI-processes     *
           *              working on a common directory               *
           ************************************************************
------------------------------------------------------------------------------
                             ORCA STARTUP CALCULATIONS
                           -- RI-GTO INTEGRALS CHOSEN --
------------------------------------------------------------------------------
------------------------------------------------------------------------------
                   ___                                                        
                  /   \      - P O W E R E D   B Y -                         
                 /     \                                                     
                 |  |  |   _    _      __       _____    __    __             
                 |  |  |  | |  | |    /  \     |  _  \  |  |  /  |          
                  \  \/   | |  | |   /    \    | | | |  |  | /  /          
                 / \  \   | |__| |  /  /\  \   | |_| |  |  |/  /          
                |  |  |   |  __  | /  /__\  \  |    /   |      \           
                |  |  |   | |  | | |   __   |  |    \   |  |\   \          
                \     /   | |  | | |  |  |  |  | |\  \  |  | \   \       
                 \___/    |_|  |_| |__|  |__|  |_| \__\ |__|  \__/        
                                                                              
                      - O R C A' S   B I G   F R I E N D -                    
                                      &                                       
                       - I N T E G R A L  F E E D E R -                       
                                                                              
 v1 FN, 2020, v2 2021, v3 2022-2024                                           
------------------------------------------------------------------------------


----------------------
SHARK INTEGRAL PACKAGE
----------------------

Number of atoms                             ...     26
Number of basis functions                   ...    437
Number of shells                            ...    183
Maximum angular momentum                    ...      3
Integral batch strategy                     ... SHARK/LIBINT Hybrid
RI-J (if used) integral strategy            ... SPLIT-RIJ (Revised 2003 algorithm where possible)
Printlevel                                  ...      1
Contraction scheme used                     ... SEGMENTED contraction
Prescreening option                         ... SCHWARTZ
   Thresh                                   ... 2.500e-11
   Tcut                                     ... 2.500e-12
   Tpresel                                  ... 2.500e-12 
Coulomb Range Separation                    ... NOT USED
Exchange Range Separation                   ... NOT USED
Multipole approximations                    ... NOT USED
Finite Nucleus Model                        ... NOT USED
CABS basis                                  ... NOT available
Auxiliary Coulomb fitting basis             ... AVAILABLE
   # of basis functions in Aux-J            ...    706
   # of shells in Aux-J                     ...    242
   Maximum angular momentum in Aux-J        ...      4
Auxiliary J/K fitting basis                 ... NOT available
Auxiliary Correlation fitting basis         ... NOT available
Auxiliary 'external' fitting basis          ... NOT available

Checking pre-screening integrals            ... done (  0.0 sec) Dimension = 183
Check shell pair data                       ... done (  0.0 sec)
Shell pair information
Shell pair cut-off parameter TPreSel        ...   2.5e-12
Total number of shell pairs                 ...     16836
Shell pairs after pre-screening             ...     14719
Total number of primitive shell pairs       ...     50704
Primitive shell pairs kept                  ...     31979
          la=0 lb=0:   4247 shell pairs
          la=1 lb=0:   4362 shell pairs
          la=1 lb=1:   1155 shell pairs
          la=2 lb=0:   1964 shell pairs
          la=2 lb=1:   1014 shell pairs
          la=2 lb=2:    239 shell pairs
          la=3 lb=0:    954 shell pairs
          la=3 lb=1:    496 shell pairs
          la=3 lb=2:    226 shell pairs
          la=3 lb=3:     62 shell pairs

Calculating one electron integrals          ... done (  0.0 sec)
Calculating RI/J V-Matrix + Cholesky decomp.... done (  0.0 sec)
Calculating Nuclear repulsion               ... done (  0.0 sec) ENN=    719.726594944931 Eh

Diagonalization of the overlap matrix:
Smallest eigenvalue                        ... 7.523e-06
Time for diagonalization                   ...    0.017 sec
Threshold for overlap eigenvalues          ... 1.000e-07
Number of eigenvalues below threshold      ... 0
Time for construction of square roots      ...    0.008 sec
Total time needed                          ...    0.026 sec

-------------------
DFT GRID GENERATION
-------------------

General Integration Accuracy     IntAcc      ... 4.959
Radial Grid Type                 RadialGrid  ... OptM3 with GC (2021)
Angular Grid (max. ang.)         AngularGrid ... 6 (Lebedev-590)
Angular grid pruning method      GridPruning ... 4 (adaptive)
Weight generation scheme         WeightScheme... mBecke (2022)
Basis function cutoff            BFCut       ... 1.0000e-11
Integration weight cutoff        WCut        ... 1.0000e-14
Partially contracted basis set               ... off
Rotationally invariant grid construction     ... off
Angular grids for H and He will be reduced by one unit

Total number of grid points                  ...   285864
Total number of batches                      ...     4481
Average number of points per batch           ...       63
Average number of grid points per atom       ...    10995

--------------------
COSX GRID GENERATION
--------------------

GRIDX 1
-------
General Integration Accuracy     IntAcc      ... 4.020
Radial Grid Type                 RadialGrid  ... OptM3 with GC (2021)
Angular Grid (max. ang.)         AngularGrid ... 2 (Lebedev-110)
Angular grid pruning method      GridPruning ... 4 (adaptive)
Weight generation scheme         WeightScheme... mBecke (2022)
Basis function cutoff            BFCut       ... 1.0000e-11
Integration weight cutoff        WCut        ... 1.0000e-14
Partially contracted basis set               ... on
Rotationally invariant grid construction     ... off
Angular grids for H and He will be reduced by one unit

Total number of grid points                  ...    30748
Total number of batches                      ...      251
Average number of points per batch           ...      122
Average number of grid points per atom       ...     1183
UseSFitting                                  ... on

GRIDX 2
-------
General Integration Accuracy     IntAcc      ... 4.338
Radial Grid Type                 RadialGrid  ... OptM3 with GC (2021)
Angular Grid (max. ang.)         AngularGrid ... 3 (Lebedev-194)
Angular grid pruning method      GridPruning ... 4 (adaptive)
Weight generation scheme         WeightScheme... mBecke (2022)
Basis function cutoff            BFCut       ... 1.0000e-11
Integration weight cutoff        WCut        ... 1.0000e-14
Partially contracted basis set               ... on
Rotationally invariant grid construction     ... off
Angular grids for H and He will be reduced by one unit

Total number of grid points                  ...    67406
Total number of batches                      ...      541
Average number of points per batch           ...      124
Average number of grid points per atom       ...     2593
UseSFitting                                  ... on

GRIDX 3
-------
General Integration Accuracy     IntAcc      ... 4.871
Radial Grid Type                 RadialGrid  ... OptM3 with GC (2021)
Angular Grid (max. ang.)         AngularGrid ... 4 (Lebedev-302)
Angular grid pruning method      GridPruning ... 4 (adaptive)
Weight generation scheme         WeightScheme... mBecke (2022)
Basis function cutoff            BFCut       ... 1.0000e-11
Integration weight cutoff        WCut        ... 1.0000e-14
Partially contracted basis set               ... on
Rotationally invariant grid construction     ... off
Angular grids for H and He will be reduced by one unit

Total number of grid points                  ...   130177
Total number of batches                      ...     1030
Average number of points per batch           ...      126
Average number of grid points per atom       ...     5007
UseSFitting                                  ... on
Initializing property integral containers    ... done (  0.0 sec)

SHARK setup successfully completed in   3.4 seconds

Maximum memory used throughout the entire STARTUP-calculation: 72.6 MB


           ************************************************************
           *        Program running with 6 parallel MPI-processes     *
           *              working on a common directory               *
           ************************************************************
-------------------------------------------------------------------------------
                                 ORCA GUESS
                   Start orbitals & Density for SCF / CASSCF
-------------------------------------------------------------------------------

------------
SCF SETTINGS
------------
Hamiltonian:
 Density Functional     Method          .... DFT(GTOs)
 Exchange Functional    Exchange        .... PBE
   PBE kappa parameter   XKappa         ....  0.804000
   PBE mue parameter    XMuePBE         ....  0.219520
 Correlation Functional Correlation     .... PBE
   PBE beta parameter  CBetaPBE         ....  0.066725
 LDA part of GGA corr.  LDAOpt          .... PW91-LDA
 Gradients option       PostSCFGGA      .... off
 Hybrid DFT is turned on
   Fraction HF Exchange ScalHFX         ....  0.250000
   Scaling of DF-GGA-X  ScalDFX         ....  0.750000
   Scaling of DF-GGA-C  ScalDFC         ....  1.000000
   Scaling of DF-LDA-C  ScalLDAC        ....  1.000000
   Perturbative correction              ....  0.000000
   NL short-range parameter             ....  6.900000
 RI-approximation to the Coulomb term is turned on
   Number of AuxJ basis functions       .... 706
   RIJ-COSX (HFX calculated with COS-X)).... on


General Settings:
 Integral files         IntName         .... m1_00_PEt2Ph-PBE0-D3-TZ
 Hartree-Fock type      HFTyp           .... RHF
 Total Charge           Charge          ....    0
 Multiplicity           Mult            ....    1
 Number of Electrons    NEL             ....   90
 Basis Dimension        Dim             ....  437
 Nuclear Repulsion      ENuc            ....    719.7265949449 Eh

Convergence Acceleration:
 AO-DIIS                CNVDIIS         .... on
   Start iteration      DIISMaxIt       ....    12
   Startup error        DIISStart       ....  0.200000
   # of expansion vecs  DIISMaxEq       ....     5
   Bias factor          DIISBfac        ....   1.050
   Max. coefficient     DIISMaxC        ....  10.000
 MO-DIIS                CNVKDIIS        .... off
 Trust-Rad. Augm. Hess. CNVTRAH         .... off
 SOSCF                  CNVSOSCF        .... on
   Start iteration      SOSCFMaxIt      ....   150
   Startup grad/error   SOSCFStart      ....  0.003300
   Hessian update       SOSCFHessUp     .... L-BFGS
 Level Shifting         CNVShift        .... on
   Level shift para.    LevelShift      ....    0.2500
   Turn off err/grad.   ShiftErr        ....    0.0010
 Zerner damping         CNVZerner       .... off
 Static damping         CNVDamp         .... on
   Fraction old density DampFac         ....    0.7000
   Max. Damping (<1)    DampMax         ....    0.9800
   Min. Damping (>=0)   DampMin         ....    0.0000
   Turn off err/grad.   DampErr         ....    0.1000

SCF Procedure:
 Maximum # iterations   MaxIter         ....   800
 SCF integral mode      SCFMode         .... Direct
   Integral package                     .... SHARK and LIBINT hybrid scheme
 Reset frequency        DirectResetFreq ....    20
 Integral Threshold     Thresh          ....  2.500e-11 Eh
 Primitive CutOff       TCut            ....  2.500e-12 Eh

Convergence Tolerance:
 Convergence Check Mode ConvCheckMode   .... Total+1el-Energy
 Convergence forced     ConvForced      .... 0
 Energy Change          TolE            ....  1.000e-08 Eh
 1-El. energy change                    ....  1.000e-05 Eh
 Orbital Gradient       TolG            ....  1.000e-05
 Orbital Rotation angle TolX            ....  1.000e-05
 DIIS Error             TolErr          ....  5.000e-07

------------------------------
INITIAL GUESS: MODEL POTENTIAL
------------------------------
Loading Hartree-Fock densities                     ... done
Calculating cut-offs                               ... done
Initializing the effective Hamiltonian             ... done
Setting up the integral package (SHARK)            ... done
Starting the Coulomb interaction                   ... done (   0.1 sec)
Making the grid                                    ... done (   0.1 sec)
Mapping shells                                     ... done
Starting the XC term evaluation                    ... done (   0.1 sec)
  promolecular density results
     # of electrons  =     89.993173238
     EX              =    -78.196366263
     EC              =     -3.059912705
     EX+EC           =    -81.256278968
Transforming the Hamiltonian                       ... done (   0.0 sec)
Diagonalizing the Hamiltonian                      ... done (   0.0 sec)
Back transforming the eigenvectors                 ... done (   0.0 sec)
Now organizing SCF variables                       ... done
                      ------------------
                      INITIAL GUESS DONE (   0.4 sec)
                      ------------------
             **** ENERGY FILE WAS UPDATED (m1_00_PEt2Ph-PBE0-D3-TZ.en.tmp) ****
Finished Guess after   0.5 sec
Maximum memory used throughout the entire GUESS-calculation: 33.2 MB


           ************************************************************
           *        Program running with 6 parallel MPI-processes     *
           *              working on a common directory               *
           ************************************************************

-------------------------------------------------------------------------------------------
                                      ORCA LEAN-SCF
                              memory conserving SCF solver
-------------------------------------------------------------------------------------------

----------------------------------------D-I-I-S--------------------------------------------
Iteration    Energy (Eh)           Delta-E    RMSDP     MaxDP     DIISErr   Damp  Time(sec)
-------------------------------------------------------------------------------------------
               ***  Starting incremental Fock matrix formation  ***
    1    -730.6284119777609476     0.00e+00  1.31e-03  6.19e-02  1.77e-01  0.700   7.2
    2    -730.7756366658339857    -1.47e-01  1.29e-03  7.13e-02  9.44e-02  0.700   3.7
                               ***Turning on AO-DIIS***
    3    -730.8389854059342952    -6.33e-02  6.84e-04  4.05e-02  3.79e-02  0.700   3.6
    4    -730.8755519734505697    -3.66e-02  1.25e-03  6.93e-02  1.99e-02  0.000   3.5
    5    -730.9540203885613892    -7.85e-02  2.00e-04  1.17e-02  4.82e-03  0.000   3.6
                              *** Initializing SOSCF ***
---------------------------------------S-O-S-C-F--------------------------------------
Iteration    Energy (Eh)           Delta-E    RMSDP     MaxDP     MaxGrad    Time(sec)
--------------------------------------------------------------------------------------
    6    -730.9543798540290709    -3.59e-04  9.53e-05  5.80e-03  1.04e-03     3.4
               *** Restarting incremental Fock matrix formation ***
    7    -730.9544036661849304    -2.38e-05  4.51e-05  1.21e-03  2.74e-04     7.1
    8    -730.9544016733858598     1.99e-06  1.93e-05  1.15e-03  6.06e-04     5.2
    9    -730.9544067131411111    -5.04e-06  1.37e-05  8.63e-04  4.92e-05     4.9
   10    -730.9544066916699876     2.15e-08  3.66e-06  1.89e-04  3.22e-05     4.4
   11    -730.9544068252224633    -1.34e-07  5.44e-06  3.62e-04  4.14e-06     4.0
   12    -730.9544068259821188    -7.60e-10  1.73e-06  1.29e-04  6.03e-06     3.6
                 **** Energy Check signals convergence ****

               *****************************************************
               *                     SUCCESS                       *
               *           SCF CONVERGED AFTER  12 CYCLES          *
               *****************************************************

Recomputing exchange energy using gridx3       ... done (   10.386 sec)
Old exchange energy                            :    -20.003004731 Eh
New exchange energy                            :    -20.002996152 Eh
Exchange energy change after final integration :      0.000008579 Eh
Total energy after final integration           :   -730.954398247 Eh
             **** ENERGY FILE WAS UPDATED (m1_00_PEt2Ph-PBE0-D3-TZ.en.tmp) ****

----------------
TOTAL SCF ENERGY
----------------

Total Energy       :       -730.95439824713003 Eh          -19890.28038 eV

Components:
Nuclear Repulsion  :        719.72659494493098 Eh           19584.75632 eV
Electronic Energy  :      -1450.68100177091310 Eh          -39475.03693 eV
One Electron Energy:      -2426.63157760330569 Eh          -66032.00223 eV
Two Electron Energy:        975.95057583239259 Eh           26556.96530 eV

Virial components:
Potential Energy   :      -1459.94170246274302 Eh          -39727.03341 eV
Kinetic Energy     :        728.98730421561299 Eh           19836.75303 eV
Virial Ratio       :          2.00269839271568

DFT components:
N(Alpha)           :       45.000029241948 electrons
N(Beta)            :       45.000029241948 electrons
N(Total)           :       90.000058483896 electrons
E(X)               :      -59.713595411958 Eh       
E(C)               :       -3.054212120770 Eh       
E(XC)              :      -62.767807532728 Eh       

---------------
SCF CONVERGENCE
---------------

  Last Energy change         ...    7.5966e-10  Tolerance :   1.0000e-08
  Last MAX-Density change    ...    1.2913e-04  Tolerance :   1.0000e-07
  Last RMS-Density change    ...    1.7305e-06  Tolerance :   5.0000e-09
  Last DIIS Error            ...    1.0361e-03  Tolerance :   5.0000e-07
  Last Orbital Gradient      ...    6.0301e-06  Tolerance :   1.0000e-05
  Last Orbital Rotation      ...    1.1103e-05  Tolerance :   1.0000e-05


----------------
ORBITAL ENERGIES
----------------

  NO   OCC          E(Eh)            E(eV) 
   0   2.0000     -77.154083     -2099.4693 
   1   2.0000     -10.235026      -278.5092 
   2   2.0000     -10.233271      -278.4614 
   3   2.0000     -10.232106      -278.4298 
   4   2.0000     -10.232050      -278.4282 
   5   2.0000     -10.230875      -278.3963 
   6   2.0000     -10.223989      -278.2089 
   7   2.0000     -10.216598      -278.0078 
   8   2.0000     -10.213082      -277.9121 
   9   2.0000     -10.212015      -277.8831 
  10   2.0000     -10.211648      -277.8731 
  11   2.0000      -6.560313      -178.5152 
  12   2.0000      -4.695158      -127.7617 
  13   2.0000      -4.694745      -127.7505 
  14   2.0000      -4.692995      -127.7029 
  15   2.0000      -0.888336       -24.1729 
  16   2.0000      -0.832984       -22.6666 
  17   2.0000      -0.780505       -21.2386 
  18   2.0000      -0.773641       -21.0518 
  19   2.0000      -0.769732       -20.9455 
  20   2.0000      -0.685571       -18.6553 
  21   2.0000      -0.644114       -17.5272 
  22   2.0000      -0.630145       -17.1471 
  23   2.0000      -0.625570       -17.0226 
  24   2.0000      -0.563702       -15.3391 
  25   2.0000      -0.516222       -14.0471 
  26   2.0000      -0.484175       -13.1751 
  27   2.0000      -0.473029       -12.8718 
  28   2.0000      -0.469918       -12.7871 
  29   2.0000      -0.464342       -12.6354 
  30   2.0000      -0.454590       -12.3700 
  31   2.0000      -0.436619       -11.8810 
  32   2.0000      -0.417167       -11.3517 
  33   2.0000      -0.405829       -11.0432 
  34   2.0000      -0.392254       -10.6738 
  35   2.0000      -0.386232       -10.5099 
  36   2.0000      -0.380510       -10.3542 
  37   2.0000      -0.374995       -10.2041 
  38   2.0000      -0.357343        -9.7238 
  39   2.0000      -0.356083        -9.6895 
  40   2.0000      -0.335079        -9.1180 
  41   2.0000      -0.329441        -8.9646 
  42   2.0000      -0.271344        -7.3836 
  43   2.0000      -0.268874        -7.3164 
  44   2.0000      -0.199073        -5.4171 
  45   0.0000      -0.028354        -0.7716 
  46   0.0000      -0.012150        -0.3306 
  47   0.0000       0.041694         1.1345 
  48   0.0000       0.058185         1.5833 
  49   0.0000       0.062822         1.7095 
  50   0.0000       0.070668         1.9230 
  51   0.0000       0.080229         2.1831 
  52   0.0000       0.094406         2.5689 
  53   0.0000       0.100108         2.7241 
  54   0.0000       0.103011         2.8031 
  55   0.0000       0.106035         2.8854 
*Only the first 10 virtual orbitals were printed.

                    ********************************
                    * MULLIKEN POPULATION ANALYSIS *
                    ********************************

-----------------------
MULLIKEN ATOMIC CHARGES
-----------------------
   0 P :   -0.004550
   1 C :   -0.228926
   2 H :    0.131131
   3 H :    0.088901
   4 C :   -0.374836
   5 H :    0.125018
   6 H :    0.143811
   7 H :    0.121712
   8 C :    0.136757
   9 C :   -0.183479
  10 C :   -0.224019
  11 C :   -0.120256
  12 C :   -0.178895
  13 C :   -0.095359
  14 H :    0.112400
  15 H :    0.168819
  16 H :    0.116635
  17 H :    0.114807
  18 H :    0.118873
  19 C :   -0.178607
  20 H :    0.123537
  21 H :    0.123492
  22 C :   -0.439270
  23 H :    0.129033
  24 H :    0.151594
  25 H :    0.121675
Sum of atomic charges:    0.0000000

--------------------------------
MULLIKEN REDUCED ORBITAL CHARGES
--------------------------------
  0 P s       :     5.496506  s :     5.496506
      pz      :     3.566481  p :     9.094761
      px      :     2.753570
      py      :     2.774710
      dz2     :     0.042179  d :     0.368898
      dxz     :     0.062564
      dyz     :     0.059899
      dx2y2   :     0.099725
      dxy     :     0.104530
      f0      :     0.003502  f :     0.044385
      f+1     :     0.005184
      f-1     :     0.005148
      f+2     :     0.007927
      f-2     :     0.007271
      f+3     :     0.009921
      f-3     :     0.005433

  1 C s       :     3.128422  s :     3.128422
      pz      :     1.016227  p :     3.007136
      px      :     1.020497
      py      :     0.970412
      dz2     :     0.015317  d :     0.089067
      dxz     :     0.012907
      dyz     :     0.022831
      dx2y2   :     0.014329
      dxy     :     0.023683
      f0      :     0.000709  f :     0.004301
      f+1     :     0.000442
      f-1     :     0.000418
      f+2     :     0.000719
      f-2     :     0.000070
      f+3     :     0.001242
      f-3     :     0.000700

  2 H s       :     0.846495  s :     0.846495
      pz      :     0.006414  p :     0.022374
      px      :     0.010649
      py      :     0.005312

  3 H s       :     0.887008  s :     0.887008
      pz      :     0.012604  p :     0.024090
      px      :     0.005489
      py      :     0.005997

  4 C s       :     3.242078  s :     3.242078
      pz      :     1.076074  p :     3.068791
      px      :     1.071384
      py      :     0.921332
      dz2     :     0.007487  d :     0.060446
      dxz     :     0.006035
      dyz     :     0.018786
      dx2y2   :     0.008561
      dxy     :     0.019577
      f0      :     0.000775  f :     0.003522
      f+1     :     0.000102
      f-1     :     0.000359
      f+2     :     0.000720
      f-2     :    -0.000033
      f+3     :     0.000853
      f-3     :     0.000746

  5 H s       :     0.853753  s :     0.853753
      pz      :     0.011478  p :     0.021229
      px      :     0.004510
      py      :     0.005240

  6 H s       :     0.834004  s :     0.834004
      pz      :     0.006499  p :     0.022185
      px      :     0.010414
      py      :     0.005271

  7 H s       :     0.857151  s :     0.857151
      pz      :     0.005674  p :     0.021136
      px      :     0.009429
      py      :     0.006033

  8 C s       :     3.094806  s :     3.094806
      pz      :     0.797497  p :     2.632403
      px      :     0.876640
      py      :     0.958267
      dz2     :     0.034332  d :     0.127551
      dxz     :     0.038574
      dyz     :     0.023453
      dx2y2   :     0.015008
      dxy     :     0.016184
      f0      :     0.001151  f :     0.008483
      f+1     :     0.002426
      f-1     :     0.001259
      f+2     :     0.000742
      f-2     :     0.000936
      f+3     :     0.001216
      f-3     :     0.000753

  9 C s       :     3.254365  s :     3.254365
      pz      :     0.939419  p :     2.824209
      px      :     0.960672
      py      :     0.924118
      dz2     :     0.026582  d :     0.097534
      dxz     :     0.021074
      dyz     :     0.010371
      dx2y2   :     0.020725
      dxy     :     0.018782
      f0      :     0.000777  f :     0.007370
      f+1     :     0.001650
      f-1     :     0.000583
      f+2     :     0.000920
      f-2     :     0.001054
      f+3     :     0.001483
      f-3     :     0.000905

 10 C s       :     3.172615  s :     3.172615
      pz      :     0.931782  p :     2.937704
      px      :     1.029161
      py      :     0.976761
      dz2     :     0.021465  d :     0.106313
      dxz     :     0.035692
      dyz     :     0.021983
      dx2y2   :     0.015661
      dxy     :     0.011512
      f0      :     0.001039  f :     0.007386
      f+1     :     0.001782
      f-1     :     0.001222
      f+2     :     0.000779
      f-2     :     0.000734
      f+3     :     0.001211
      f-3     :     0.000619

 11 C s       :     3.175874  s :     3.175874
      pz      :     0.935537  p :     2.847292
      px      :     0.956025
      py      :     0.955731
      dz2     :     0.020184  d :     0.089919
      dxz     :     0.029422
      dyz     :     0.018160
      dx2y2   :     0.012681
      dxy     :     0.009472
      f0      :     0.001025  f :     0.007171
      f+1     :     0.001721
      f-1     :     0.001243
      f+2     :     0.000741
      f-2     :     0.000676
      f+3     :     0.001173
      f-3     :     0.000594

 12 C s       :     3.205077  s :     3.205077
      pz      :     0.956769  p :     2.875023
      px      :     0.949525
      py      :     0.968728
      dz2     :     0.024041  d :     0.091611
      dxz     :     0.020528
      dyz     :     0.010026
      dx2y2   :     0.019234
      dxy     :     0.017782
      f0      :     0.000797  f :     0.007184
      f+1     :     0.001537
      f-1     :     0.000580
      f+2     :     0.000891
      f-2     :     0.001079
      f+3     :     0.001452
      f-3     :     0.000849

 13 C s       :     3.167324  s :     3.167324
      pz      :     0.929537  p :     2.831279
      px      :     0.953866
      py      :     0.947876
      dz2     :     0.023849  d :     0.089587
      dxz     :     0.027030
      dyz     :     0.019801
      dx2y2   :     0.007690
      dxy     :     0.011216
      f0      :     0.001103  f :     0.007169
      f+1     :     0.001875
      f-1     :     0.001084
      f+2     :     0.000656
      f-2     :     0.000948
      f+3     :     0.000720
      f-3     :     0.000784

 14 H s       :     0.865203  s :     0.865203
      pz      :     0.013526  p :     0.022397
      px      :     0.003879
      py      :     0.004992

 15 H s       :     0.808524  s :     0.808524
      pz      :     0.007084  p :     0.022657
      px      :     0.010086
      py      :     0.005488

 16 H s       :     0.861164  s :     0.861164
      pz      :     0.007201  p :     0.022201
      px      :     0.009924
      py      :     0.005076

 17 H s       :     0.863006  s :     0.863006
      pz      :     0.013208  p :     0.022187
      px      :     0.003907
      py      :     0.005072

 18 H s       :     0.859003  s :     0.859003
      pz      :     0.005247  p :     0.022124
      px      :     0.010277
      py      :     0.006600

 19 C s       :     3.093156  s :     3.093156
      pz      :     0.948209  p :     2.990311
      px      :     1.037261
      py      :     1.004841
      dz2     :     0.021584  d :     0.090773
      dxz     :     0.021941
      dyz     :     0.028662
      dx2y2   :     0.005333
      dxy     :     0.013253
      f0      :     0.001008  f :     0.004367
      f+1     :     0.000922
      f-1     :     0.001383
      f+2     :     0.000095
      f-2     :    -0.000033
      f+3     :     0.000398
      f-3     :     0.000594

 20 H s       :     0.854160  s :     0.854160
      pz      :     0.005537  p :     0.022303
      px      :     0.009340
      py      :     0.007425

 21 H s       :     0.854138  s :     0.854138
      pz      :     0.005512  p :     0.022370
      px      :     0.009520
      py      :     0.007338

 22 C s       :     3.269059  s :     3.269059
      pz      :     0.947456  p :     3.105171
      px      :     1.053970
      py      :     1.103746
      dz2     :     0.010030  d :     0.061601
      dxz     :     0.018928
      dyz     :     0.021163
      dx2y2   :     0.005149
      dxy     :     0.006331
      f0      :     0.001112  f :     0.003439
      f+1     :     0.000851
      f-1     :     0.000978
      f+2     :    -0.000072
      f-2     :    -0.000074
      f+3     :     0.000016
      f-3     :     0.000628

 23 H s       :     0.848840  s :     0.848840
      pz      :     0.005847  p :     0.022127
      px      :     0.009797
      py      :     0.006483

 24 H s       :     0.825309  s :     0.825309
      pz      :     0.005600  p :     0.023097
      px      :     0.010171
      py      :     0.007326

 25 H s       :     0.856957  s :     0.856957
      pz      :     0.005862  p :     0.021367
      px      :     0.004460
      py      :     0.011046



                     *******************************
                     * LOEWDIN POPULATION ANALYSIS *
                     *******************************

----------------------
LOEWDIN ATOMIC CHARGES
----------------------
   0 P :    0.513909
   1 C :   -0.447524
   2 H :    0.144867
   3 H :    0.126020
   4 C :   -0.321535
   5 H :    0.123718
   6 H :    0.127588
   7 H :    0.118915
   8 C :   -0.305919
   9 C :   -0.122387
  10 C :   -0.141496
  11 C :   -0.141487
  12 C :   -0.146487
  13 C :   -0.135102
  14 H :    0.147136
  15 H :    0.151233
  16 H :    0.145656
  17 H :    0.144610
  18 H :    0.145306
  19 C :   -0.449218
  20 H :    0.147711
  21 H :    0.149289
  22 C :   -0.336815
  23 H :    0.114999
  24 H :    0.129430
  25 H :    0.117586

-------------------------------
LOEWDIN REDUCED ORBITAL CHARGES
-------------------------------
  0 P s       :     4.746522  s :     4.746522
      pz      :     3.330721  p :     8.855526
      px      :     2.756440
      py      :     2.768365
      dz2     :     0.125371  d :     0.734186
      dxz     :     0.109082
      dyz     :     0.107761
      dx2y2   :     0.196863
      dxy     :     0.195109
      f0      :     0.007568  f :     0.149857
      f+1     :     0.017052
      f-1     :     0.017575
      f+2     :     0.026576
      f-2     :     0.025033
      f+3     :     0.033879
      f-3     :     0.022174

  1 C s       :     2.813752  s :     2.813752
      pz      :     1.061557  p :     3.209457
      px      :     1.095491
      py      :     1.052409
      dz2     :     0.078837  d :     0.392251
      dxz     :     0.069059
      dyz     :     0.077796
      dx2y2   :     0.076571
      dxy     :     0.089988
      f0      :     0.004893  f :     0.032064
      f+1     :     0.002371
      f-1     :     0.003986
      f+2     :     0.005416
      f-2     :     0.003359
      f+3     :     0.007407
      f-3     :     0.004631

  2 H s       :     0.793542  s :     0.793542
      pz      :     0.018817  p :     0.061591
      px      :     0.027935
      py      :     0.014840

  3 H s       :     0.808033  s :     0.808033
      pz      :     0.034492  p :     0.065947
      px      :     0.015544
      py      :     0.015911

  4 C s       :     2.837059  s :     2.837059
      pz      :     1.083798  p :     3.190194
      px      :     1.076064
      py      :     1.030332
      dz2     :     0.040765  d :     0.269620
      dxz     :     0.028185
      dyz     :     0.069792
      dx2y2   :     0.051420
      dxy     :     0.079458
      f0      :     0.004043  f :     0.024663
      f+1     :     0.000486
      f-1     :     0.003103
      f+2     :     0.004641
      f-2     :     0.002599
      f+3     :     0.005497
      f-3     :     0.004294

  5 H s       :     0.813975  s :     0.813975
      pz      :     0.034099  p :     0.062307
      px      :     0.013904
      py      :     0.014304

  6 H s       :     0.807803  s :     0.807803
      pz      :     0.019799  p :     0.064609
      px      :     0.030422
      py      :     0.014389

  7 H s       :     0.819376  s :     0.819376
      pz      :     0.017185  p :     0.061709
      px      :     0.028231
      py      :     0.016293

  8 C s       :     2.747077  s :     2.747077
      pz      :     1.067477  p :     3.005672
      px      :     1.031535
      py      :     0.906660
      dz2     :     0.133888  d :     0.503246
      dxz     :     0.162641
      dyz     :     0.087011
      dx2y2   :     0.055377
      dxy     :     0.064329
      f0      :     0.008116  f :     0.049925
      f+1     :     0.015798
      f-1     :     0.006702
      f+2     :     0.005197
      f-2     :     0.005799
      f+3     :     0.004084
      f-3     :     0.004229

  9 C s       :     2.769567  s :     2.769567
      pz      :     0.989194  p :     2.917293
      px      :     1.029958
      py      :     0.898141
      dz2     :     0.115460  d :     0.393341
      dxz     :     0.086964
      dyz     :     0.036849
      dx2y2   :     0.077484
      dxy     :     0.076584
      f0      :     0.004240  f :     0.042187
      f+1     :     0.011262
      f-1     :     0.002926
      f+2     :     0.006300
      f-2     :     0.007177
      f+3     :     0.004673
      f-3     :     0.005609

 10 C s       :     2.765763  s :     2.765763
      pz      :     1.023341  p :     2.926309
      px      :     0.990552
      py      :     0.912417
      dz2     :     0.087946  d :     0.406755
      dxz     :     0.146406
      dyz     :     0.075761
      dx2y2   :     0.053662
      dxy     :     0.042980
      f0      :     0.007353  f :     0.042670
      f+1     :     0.011675
      f-1     :     0.007129
      f+2     :     0.003264
      f-2     :     0.004734
      f+3     :     0.004419
      f-3     :     0.004097

 11 C s       :     2.768547  s :     2.768547
      pz      :     1.034716  p :     2.946451
      px      :     0.990675
      py      :     0.921060
      dz2     :     0.088591  d :     0.384402
      dxz     :     0.138328
      dyz     :     0.071825
      dx2y2   :     0.048346
      dxy     :     0.037312
      f0      :     0.007461  f :     0.042088
      f+1     :     0.011487
      f-1     :     0.007101
      f+2     :     0.003212
      f-2     :     0.004589
      f+3     :     0.004216
      f-3     :     0.004022

 12 C s       :     2.768590  s :     2.768590
      pz      :     0.987270  p :     2.948035
      px      :     1.038883
      py      :     0.921882
      dz2     :     0.113720  d :     0.387616
      dxz     :     0.087330
      dyz     :     0.036717
      dx2y2   :     0.075968
      dxy     :     0.073881
      f0      :     0.004328  f :     0.042246
      f+1     :     0.011180
      f-1     :     0.002948
      f+2     :     0.006319
      f-2     :     0.007225
      f+3     :     0.004621
      f-3     :     0.005623

 13 C s       :     2.769913  s :     2.769913
      pz      :     1.051600  p :     2.936239
      px      :     0.986427
      py      :     0.898213
      dz2     :     0.109392  d :     0.386609
      dxz     :     0.124173
      dyz     :     0.074918
      dx2y2   :     0.030381
      dxy     :     0.047745
      f0      :     0.007441  f :     0.042341
      f+1     :     0.012898
      f-1     :     0.005793
      f+2     :     0.004762
      f-2     :     0.005040
      f+3     :     0.002493
      f-3     :     0.003914

 14 H s       :     0.792586  s :     0.792586
      pz      :     0.035382  p :     0.060278
      px      :     0.010898
      py      :     0.013998

 15 H s       :     0.787438  s :     0.787438
      pz      :     0.019431  p :     0.061329
      px      :     0.027017
      py      :     0.014880

 16 H s       :     0.795132  s :     0.795132
      pz      :     0.019327  p :     0.059212
      px      :     0.025797
      py      :     0.014088

 17 H s       :     0.796084  s :     0.796084
      pz      :     0.033743  p :     0.059306
      px      :     0.011370
      py      :     0.014193

 18 H s       :     0.795496  s :     0.795496
      pz      :     0.014700  p :     0.059199
      px      :     0.026713
      py      :     0.017786

 19 C s       :     2.815751  s :     2.815751
      pz      :     1.067361  p :     3.212784
      px      :     1.031355
      py      :     1.114068
      dz2     :     0.100994  d :     0.389105
      dxz     :     0.072196
      dyz     :     0.114777
      dx2y2   :     0.037262
      dxy     :     0.063876
      f0      :     0.005653  f :     0.031579
      f+1     :     0.006137
      f-1     :     0.008609
      f+2     :     0.003300
      f-2     :     0.002526
      f+3     :     0.001625
      f-3     :     0.003728

 20 H s       :     0.790745  s :     0.790745
      pz      :     0.014961  p :     0.061544
      px      :     0.026864
      py      :     0.019718

 21 H s       :     0.789328  s :     0.789328
      pz      :     0.014831  p :     0.061383
      px      :     0.027100
      py      :     0.019452

 22 C s       :     2.837519  s :     2.837519
      pz      :     1.047396  p :     3.197332
      px      :     1.074556
      py      :     1.075381
      dz2     :     0.060942  d :     0.277101
      dxz     :     0.071970
      dyz     :     0.082578
      dx2y2   :     0.030763
      dxy     :     0.030848
      f0      :     0.004877  f :     0.024862
      f+1     :     0.005752
      f-1     :     0.006397
      f+2     :     0.002397
      f-2     :     0.002518
      f+3     :     0.000043
      f-3     :     0.002878

 23 H s       :     0.820995  s :     0.820995
      pz      :     0.015448  p :     0.064007
      px      :     0.028803
      py      :     0.019755

 24 H s       :     0.803720  s :     0.803720
      pz      :     0.015365  p :     0.066850
      px      :     0.030273
      py      :     0.021211

 25 H s       :     0.820230  s :     0.820230
      pz      :     0.015901  p :     0.062184
      px      :     0.013622
      py      :     0.032661



                      *****************************
                      * MAYER POPULATION ANALYSIS *
                      *****************************

  NA   - Mulliken gross atomic population
  ZA   - Total nuclear charge
  QA   - Mulliken gross atomic charge
  VA   - Mayer's total valence
  BVA  - Mayer's bonded valence
  FA   - Mayer's free valence

  ATOM       NA         ZA         QA         VA         BVA        FA
  0 P     15.0046    15.0000    -0.0046     3.4700     3.4700     0.0000
  1 C      6.2289     6.0000    -0.2289     3.9260     3.9260     0.0000
  2 H      0.8689     1.0000     0.1311     0.9650     0.9650     0.0000
  3 H      0.9111     1.0000     0.0889     0.9711     0.9711     0.0000
  4 C      6.3748     6.0000    -0.3748     3.9340     3.9340    -0.0000
  5 H      0.8750     1.0000     0.1250     0.9815     0.9815    -0.0000
  6 H      0.8562     1.0000     0.1438     0.9722     0.9722     0.0000
  7 H      0.8783     1.0000     0.1217     0.9672     0.9672    -0.0000
  8 C      5.8632     6.0000     0.1368     3.7237     3.7237     0.0000
  9 C      6.1835     6.0000    -0.1835     4.0350     4.0350     0.0000
 10 C      6.2240     6.0000    -0.2240     3.8806     3.8806     0.0000
 11 C      6.1203     6.0000    -0.1203     3.9385     3.9385     0.0000
 12 C      6.1789     6.0000    -0.1789     4.0014     4.0014     0.0000
 13 C      6.0954     6.0000    -0.0954     3.9353     3.9353     0.0000
 14 H      0.8876     1.0000     0.1124     1.0054     1.0054     0.0000
 15 H      0.8312     1.0000     0.1688     0.9395     0.9395     0.0000
 16 H      0.8834     1.0000     0.1166     0.9666     0.9666     0.0000
 17 H      0.8852     1.0000     0.1148     0.9690     0.9690     0.0000
 18 H      0.8811     1.0000     0.1189     0.9658     0.9658     0.0000
 19 C      6.1786     6.0000    -0.1786     3.8831     3.8831     0.0000
 20 H      0.8765     1.0000     0.1235     0.9687     0.9687    -0.0000
 21 H      0.8765     1.0000     0.1235     0.9762     0.9762     0.0000
 22 C      6.4393     6.0000    -0.4393     3.9316     3.9316     0.0000
 23 H      0.8710     1.0000     0.1290     0.9619     0.9619     0.0000
 24 H      0.8484     1.0000     0.1516     0.9614     0.9614    -0.0000
 25 H      0.8783     1.0000     0.1217     0.9791     0.9791     0.0000

  Mayer bond orders larger than 0.100000
B(  0-P ,  1-C ) :   1.0497 B(  0-P ,  8-C ) :   0.9991 B(  0-P ,  9-C ) :   0.1122 
B(  0-P , 19-C ) :   1.0431 B(  1-C ,  2-H ) :   0.9334 B(  1-C ,  3-H ) :   0.9407 
B(  1-C ,  4-C ) :   0.9830 B(  4-C ,  5-H ) :   0.9667 B(  4-C ,  6-H ) :   0.9691 
B(  4-C ,  7-H ) :   0.9641 B(  8-C ,  9-C ) :   1.3846 B(  8-C , 10-C ) :   1.2486 
B(  9-C , 11-C ) :   1.4247 B(  9-C , 14-H ) :   0.9620 B( 10-C , 12-C ) :   1.4330 
B( 10-C , 15-H ) :   0.9642 B( 11-C , 13-C ) :   1.4122 B( 11-C , 16-H ) :   0.9710 
B( 12-C , 13-C ) :   1.4058 B( 12-C , 17-H ) :   0.9632 B( 13-C , 18-H ) :   0.9666 
B( 19-C , 20-H ) :   0.9363 B( 19-C , 21-H ) :   0.9383 B( 19-C , 22-C ) :   0.9548 
B( 22-C , 23-H ) :   0.9739 B( 22-C , 24-H ) :   0.9587 B( 22-C , 25-H ) :   0.9582 



------------------
HIRSHFELD ANALYSIS
------------------

Total integrated alpha density =     45.000029242
Total integrated beta density  =     45.000029242

  ATOM     CHARGE      SPIN    
   0 P    0.027329    0.000000
   1 C   -0.089880    0.000000
   2 H    0.041771    0.000000
   3 H    0.022685    0.000000
   4 C   -0.074542    0.000000
   5 H    0.029614    0.000000
   6 H    0.023467    0.000000
   7 H    0.027502    0.000000
   8 C   -0.047225    0.000000
   9 C   -0.025150    0.000000
  10 C   -0.020100    0.000000
  11 C   -0.039612    0.000000
  12 C   -0.040800    0.000000
  13 C   -0.033861    0.000000
  14 H    0.037705    0.000000
  15 H    0.041555    0.000000
  16 H    0.041073    0.000000
  17 H    0.038856    0.000000
  18 H    0.042455    0.000000
  19 C   -0.084207    0.000000
  20 H    0.043745    0.000000
  21 H    0.044744    0.000000
  22 C   -0.081271    0.000000
  23 H    0.024968    0.000000
  24 H    0.024097    0.000000
  25 H    0.025024    0.000000

  TOTAL  -0.000058    0.000000

-------------------------
CHELPG CHARGES GENERATION
-------------------------
Grid spacing                       ...     0.300000
Point Cut-Off                      ...     2.800000
Van-der-Waals Radii                ...        COSMO
Total charge                       ...            0
Dipole moment constraint           ...        FALSE


Number of points X direction       ...           41
Number of points Y direction       ...           36
Number of points Z direction       ...           34
Maximum number of possible points  ...        50184
Final number of points             ...        15182


Grid generated                     ...   0.0 sec
Potential calculated               ...   0.8 sec
RespFile stored                    ... ok
Charges calculated                 ...   0.1 sec
CHELPG Charges            
--------------------------------
  0   P   :      -0.862531
  1   C   :       0.479303
  2   H   :       0.041263
  3   H   :      -0.089432
  4   C   :      -0.659867
  5   H   :       0.174318
[...]
 11:    173.06   0.000027    0.13  0.000048  ( 0.005478 -0.001101 -0.004104)
 12:    215.16   0.000196    0.99  0.000284  (-0.006773  0.011834  0.009918)
 13:    229.36   0.000029    0.15  0.000039  ( 0.004065 -0.000474 -0.004743)
 14:    256.09   0.000043    0.22  0.000053  (-0.002496 -0.001456  0.006677)
 15:    276.06   0.000201    1.01  0.000227  (-0.013181  0.006207 -0.003840)
 16:    342.00   0.000156    0.79  0.000142  (-0.011648 -0.001261 -0.002233)
 17:    384.77   0.000285    1.44  0.000231  (-0.011311 -0.010140 -0.000097)
 18:    406.57   0.000067    0.34  0.000051  ( 0.005989  0.002082 -0.003322)
 19:    416.94   0.000221    1.12  0.000166  ( 0.007920  0.008138 -0.006063)
 20:    506.43   0.002450   12.38  0.001510  (-0.015887  0.026333  0.023750)
 21:    629.74   0.000037    0.19  0.000018  ( 0.003431  0.001284  0.002189)
 22:    640.63   0.001758    8.89  0.000857  ( 0.010394  0.026224  0.007802)
 23:    675.47   0.000827    4.18  0.000382  ( 0.010578 -0.015773  0.004623)
 24:    700.91   0.000401    2.03  0.000179  ( 0.013327 -0.000359 -0.000991)
 25:    715.19   0.007101   35.89  0.003099  (-0.006267  0.048919  0.025810)
 26:    740.45   0.006529   33.00  0.002752  (-0.045307  0.022962  0.013105)
 27:    757.50   0.002301   11.63  0.000948  ( 0.010016  0.019369 -0.021741)
 28:    767.66   0.005073   25.64  0.002062  (-0.017546 -0.038263 -0.017038)
 29:    866.50   0.000037    0.19  0.000013  (-0.002996  0.000120  0.002122)
 30:    932.16   0.000211    1.07  0.000071  (-0.000623 -0.008366  0.000524)
 31:    974.43   0.000032    0.16  0.000010  ( 0.001512 -0.001691  0.002261)
 32:    987.97   0.000225    1.13  0.000071  ( 0.002519 -0.008032 -0.000280)
 33:    988.32   0.000881    4.45  0.000278  ( 0.014994 -0.007195  0.001227)
 34:    990.12   0.000405    2.05  0.000128  (-0.001447 -0.010666 -0.003420)
 35:    999.89   0.000652    3.30  0.000204  ( 0.006985 -0.000579  0.012428)
 36:   1012.10   0.001257    6.35  0.000388  ( 0.018154  0.004260 -0.006310)
 37:   1023.26   0.000170    0.86  0.000052  ( 0.006089  0.002060  0.003255)
 38:   1059.78   0.000559    2.83  0.000165  (-0.008065 -0.009869 -0.001497)
 39:   1060.25   0.000357    1.81  0.000105  ( 0.007382 -0.003652 -0.006114)
 40:   1078.50   0.002545   12.86  0.000737  (-0.000475  0.026060  0.007562)
 41:   1109.88   0.000569    2.88  0.000160  (-0.005669  0.003198 -0.010851)
 42:   1129.80   0.001500    7.58  0.000414  (-0.018622 -0.005935  0.005681)
 43:   1180.25   0.000009    0.05  0.000002  (-0.001421 -0.000526  0.000292)
 44:   1208.79   0.000164    0.83  0.000042  (-0.006279 -0.001025 -0.001406)
 45:   1259.51   0.000077    0.39  0.000019  ( 0.003610  0.000270  0.002468)
 46:   1268.97   0.000088    0.45  0.000022  ( 0.000441 -0.003050  0.003495)
 47:   1274.26   0.000828    4.18  0.000203  (-0.012973 -0.005347  0.002413)
 48:   1280.70   0.000323    1.63  0.000079  ( 0.003874  0.007984  0.000126)
 49:   1331.21   0.000864    4.37  0.000203  (-0.000897 -0.008731  0.011206)
 50:   1364.71   0.000014    0.07  0.000003  (-0.000811 -0.001143 -0.001063)
 51:   1400.89   0.000836    4.22  0.000186  ( 0.001554 -0.001385  0.013486)
 52:   1405.78   0.000882    4.46  0.000196  ( 0.002412 -0.011350 -0.007825)
 53:   1446.84   0.001620    8.19  0.000350  (-0.001154  0.016541 -0.008635)
 54:   1461.32   0.001531    7.74  0.000327  (-0.015033 -0.008699 -0.005023)
 55:   1474.63   0.002529   12.78  0.000535  (-0.010967  0.008372 -0.018567)
 56:   1489.25   0.001760    8.90  0.000369  ( 0.014097  0.006791 -0.011136)
 57:   1492.02   0.000578    2.92  0.000121  (-0.008410  0.006549  0.002689)
 58:   1493.98   0.000553    2.79  0.000115  (-0.004051 -0.009883 -0.001160)
 59:   1496.95   0.000944    4.77  0.000197  ( 0.007180  0.001715  0.011931)
 60:   1524.12   0.001511    7.63  0.000309  ( 0.015563  0.004637 -0.006754)
 61:   1638.84   0.000053    0.27  0.000010  (-0.001661 -0.000034 -0.002715)
 62:   1656.59   0.000467    2.36  0.000088  ( 0.008839  0.003130 -0.000257)
 63:   3046.17   0.000770    3.89  0.000079  ( 0.004663  0.002069  0.007267)
 64:   3046.52   0.003870   19.56  0.000396  (-0.004281 -0.004407  0.018938)
 65:   3049.74   0.010585   53.49  0.001083  ( 0.001319 -0.029724 -0.014065)
 66:   3049.83   0.002902   14.67  0.000297  ( 0.014244 -0.006957  0.006756)
 67:   3087.00   0.000801    4.05  0.000081  ( 0.002934  0.001044  0.008439)
 68:   3089.68   0.001153    5.83  0.000117  ( 0.008037  0.002342 -0.006814)
 69:   3115.36   0.004669   23.60  0.000468  ( 0.003348 -0.021042  0.003709)
 70:   3121.18   0.004719   23.85  0.000472  ( 0.019767 -0.000486  0.008993)
 71:   3127.90   0.004912   24.82  0.000490  (-0.013246 -0.006030  0.016680)
 72:   3132.16   0.004080   20.62  0.000406  ( 0.019592  0.001231  0.004596)
 73:   3174.22   0.000436    2.21  0.000043  (-0.002101 -0.002915  0.005478)
 74:   3185.59   0.000075    0.38  0.000007  (-0.002270 -0.001286  0.000750)
 75:   3196.14   0.001237    6.25  0.000121  ( 0.000054  0.004626 -0.009970)
 76:   3205.51   0.004312   21.79  0.000420  (-0.016061  0.003965 -0.012089)
 77:   3213.54   0.002928   14.80  0.000284  ( 0.012048  0.007637 -0.008990)

* The epsilon (eps) is given for a Dirac delta lineshape.
** The dipole moment derivative (T) already includes vibrational overlap.

The first frequency considered to be a vibration is 6
The total number of vibrations considered is 72


--------------------------
THERMOCHEMISTRY AT 298.15K
--------------------------

Temperature         ...   298.15 K
Pressure            ...     1.00 atm
Total Mass          ...   166.20 AMU
Quasi RRHO          ...     True
Cut-Off Frequency   ...     1.00 cm^-1

Throughout the following assumptions are being made:
  (1) The electronic state is orbitally nondegenerate
  (2) There are no thermally accessible electronically excited states
  (3) Hindered rotations indicated by low frequency modes are not
      treated as such but are treated as vibrations and this may
      cause some error
  (4) All equations used are the standard statistical mechanics
      equations for an ideal gas
  (5) All vibrations are strictly harmonic

freq.      28.66  E(vib)   ...       0.55 
freq.      66.67  E(vib)   ...       0.50 
freq.      83.42  E(vib)   ...       0.48 
freq.     114.19  E(vib)   ...       0.44 
freq.     155.55  E(vib)   ...       0.40 
freq.     173.06  E(vib)   ...       0.38 
freq.     215.16  E(vib)   ...       0.34 
freq.     229.36  E(vib)   ...       0.32 
freq.     256.09  E(vib)   ...       0.30 
freq.     276.06  E(vib)   ...       0.28 
freq.     342.00  E(vib)   ...       0.23 
freq.     384.77  E(vib)   ...       0.20 
freq.     406.57  E(vib)   ...       0.19 
freq.     416.94  E(vib)   ...       0.18 
freq.     506.43  E(vib)   ...       0.14 
freq.     629.74  E(vib)   ...       0.09 
freq.     640.63  E(vib)   ...       0.09 
freq.     675.47  E(vib)   ...       0.08 
freq.     700.91  E(vib)   ...       0.07 
freq.     715.19  E(vib)   ...       0.07 
freq.     740.45  E(vib)   ...       0.06 
freq.     757.50  E(vib)   ...       0.06 
freq.     767.66  E(vib)   ...       0.06 
freq.     866.50  E(vib)   ...       0.04 
freq.     932.16  E(vib)   ...       0.03 
freq.     974.43  E(vib)   ...       0.03 
freq.     987.97  E(vib)   ...       0.02 
freq.     988.32  E(vib)   ...       0.02 
freq.     990.12  E(vib)   ...       0.02 
freq.     999.89  E(vib)   ...       0.02 
freq.    1012.10  E(vib)   ...       0.02 
freq.    1023.26  E(vib)   ...       0.02 
freq.    1059.78  E(vib)   ...       0.02 
freq.    1060.25  E(vib)   ...       0.02 
freq.    1078.50  E(vib)   ...       0.02 
freq.    1109.88  E(vib)   ...       0.02 
freq.    1129.80  E(vib)   ...       0.01 
freq.    1180.25  E(vib)   ...       0.01 
freq.    1208.79  E(vib)   ...       0.01 
freq.    1259.51  E(vib)   ...       0.01 
freq.    1268.97  E(vib)   ...       0.01 
freq.    1274.26  E(vib)   ...       0.01 
freq.    1280.70  E(vib)   ...       0.01 
freq.    1331.21  E(vib)   ...       0.01 
freq.    1364.71  E(vib)   ...       0.01 
freq.    1400.89  E(vib)   ...       0.00 
freq.    1405.78  E(vib)   ...       0.00 
freq.    1446.84  E(vib)   ...       0.00 
freq.    1461.32  E(vib)   ...       0.00 
freq.    1474.63  E(vib)   ...       0.00 
freq.    1489.25  E(vib)   ...       0.00 
freq.    1492.02  E(vib)   ...       0.00 
freq.    1493.98  E(vib)   ...       0.00 
freq.    1496.95  E(vib)   ...       0.00 
freq.    1524.12  E(vib)   ...       0.00 
freq.    1638.84  E(vib)   ...       0.00 
freq.    1656.59  E(vib)   ...       0.00 
freq.    3046.17  E(vib)   ...       0.00 
freq.    3046.52  E(vib)   ...       0.00 
freq.    3049.74  E(vib)   ...       0.00 
freq.    3049.83  E(vib)   ...       0.00 
freq.    3087.00  E(vib)   ...       0.00 
freq.    3089.68  E(vib)   ...       0.00 
freq.    3115.36  E(vib)   ...       0.00 
freq.    3121.18  E(vib)   ...       0.00 
freq.    3127.90  E(vib)   ...       0.00 
freq.    3132.16  E(vib)   ...       0.00 
freq.    3174.22  E(vib)   ...       0.00 
freq.    3185.59  E(vib)   ...       0.00 
freq.    3196.14  E(vib)   ...       0.00 
freq.    3205.51  E(vib)   ...       0.00 
freq.    3213.54  E(vib)   ...       0.00 

------------
INNER ENERGY
------------

The inner energy is: U= E(el) + E(ZPE) + E(vib) + E(rot) + E(trans)
    E(el)   - is the total energy from the electronic structure calculation
              = E(kin-el) + E(nuc-el) + E(el-el) + E(nuc-nuc)
    E(ZPE)  - the the zero temperature vibrational energy from the frequency calculation
    E(vib)  - the the finite temperature correction to E(ZPE) due to population
              of excited vibrational states
    E(rot)  - is the rotational thermal energy
    E(trans)- is the translational thermal energy

Summary of contributions to the inner energy U:
Electronic energy                ...   -731.02251660 Eh
Zero point energy                ...      0.22436667 Eh     140.79 kcal/mol
Thermal vibrational correction   ...      0.00945677 Eh       5.93 kcal/mol
Thermal rotational correction    ...      0.00141627 Eh       0.89 kcal/mol
Thermal translational correction ...      0.00141627 Eh       0.89 kcal/mol
-----------------------------------------------------------------------
Total thermal energy                   -730.78586062 Eh


Summary of corrections to the electronic energy:
(perhaps to be used in another calculation)
Total thermal correction                  0.01228931 Eh       7.71 kcal/mol
Non-thermal (ZPE) correction              0.22436667 Eh     140.79 kcal/mol
-----------------------------------------------------------------------
Total correction                          0.23665598 Eh     148.50 kcal/mol


--------
ENTHALPY
--------

The enthalpy is H = U + kB*T
                kB is Boltzmann's constant
Total thermal energy              ...   -730.78586062 Eh 
Thermal Enthalpy correction       ...      0.00094421 Eh       0.59 kcal/mol
-----------------------------------------------------------------------
Total Enthalpy                    ...   -730.78491641 Eh


Note: Only C1 symmetry has been detected, increase convergence thresholds 
      if your molecule has a higher symmetry. Symmetry factor of 1.0 is   
      used for the rotational entropy correction. 
 

Note: Rotational entropy computed according to Herzberg 
Infrared and Raman Spectra, Chapter V,1, Van Nostrand Reinhold, 1945 
Point Group:  C1, Symmetry Number:   1  
Rotational constants in cm-1:     0.045584     0.023072     0.019738 

Vibrational entropy computed according to the QRRHO of S. Grimme
Chem.Eur.J. 2012 18 9955 using a reference frequency of 100.0 cm-1


-------
ENTROPY
-------

The entropy contributions are T*S = T*(S(el)+S(vib)+S(rot)+S(trans))
     S(el)   - electronic entropy
     S(vib)  - vibrational entropy
     S(rot)  - rotational entropy
     S(trans)- translational entropy
The entropies will be listed as multiplied by the temperature to get
units of energy

Electronic entropy                ...      0.00000000 Eh      0.00 kcal/mol
Vibrational entropy               ...      0.01654094 Eh     10.38 kcal/mol
Rotational entropy                ...      0.01460116 Eh      9.16 kcal/mol
Translational entropy             ...      0.01959077 Eh     12.29 kcal/mol
-----------------------------------------------------------------------
Final entropy term                ...      0.05073287 Eh     31.84 kcal/mol

In case the symmetry of your molecule has not been determined correctly
or in case you have a reason to use a different symmetry number we print 
out the resulting rotational entropy values for sn=1,12:

 non-linear molecules -----------------------------------
|  sn= 1 | S(rot)=       0.01460116 Eh      9.16 kcal/mol|
|  sn= 2 | S(rot)=       0.01394670 Eh      8.75 kcal/mol|
|  sn= 3 | S(rot)=       0.01356387 Eh      8.51 kcal/mol|
|  sn= 4 | S(rot)=       0.01329224 Eh      8.34 kcal/mol|
|  sn= 5 | S(rot)=       0.01308156 Eh      8.21 kcal/mol|
|  sn= 6 | S(rot)=       0.01290941 Eh      8.10 kcal/mol|
|  sn= 7 | S(rot)=       0.01276387 Eh      8.01 kcal/mol|
|  sn= 8 | S(rot)=       0.01263779 Eh      7.93 kcal/mol|
|  sn= 9 | S(rot)=       0.01252658 Eh      7.86 kcal/mol|
|  sn=10 | S(rot)=       0.01242710 Eh      7.80 kcal/mol|
|  sn=11 | S(rot)=       0.01233711 Eh      7.74 kcal/mol|
|  sn=12 | S(rot)=       0.01225496 Eh      7.69 kcal/mol|
 linear molecules ---------------------------------------
|  Dinfh | S(rot)=       0.00903193 Eh      5.67 kcal/mol|
|  Cinfv | S(rot)=       0.00968638 Eh      6.08 kcal/mol|
 --------------------------------------------------------


-------------------
GIBBS FREE ENERGY
-------------------

The Gibbs free energy is G = H - T*S

Total enthalpy                    ...   -730.78491641 Eh 
Total entropy correction          ...     -0.05073287 Eh    -31.84 kcal/mol
-----------------------------------------------------------------------
Final Gibbs free energy         ...   -730.83564928 Eh

For completeness - the Gibbs free energy minus the electronic energy
G-E(el)                           ...      0.18686732 Eh    117.26 kcal/mol


Maximum memory used throughout the entire PROP-calculation: 200.2 MB

--------------------------------
SUGGESTED CITATIONS FOR THIS RUN
--------------------------------

Below you find a list of papers that are relevant to this ORCA run
We neither can nor want to force you to cite these papers, but we appreciate if you do
You receive ORCA, which is the product of decades of hard work by many enthusiastic individuals, for free
The only thing we kindly ask in return is that you cite our papers,
We deeply appreciate it, if you show your appreciation for ORCA by not just citing the generic ORCA reference.

Please note that relegating all ORCA citations to the supporting information does *not* help us.
SI sections are not indexed - citations you put there will not count into any citation statistics
But we need these citations in order to attract the funding resources that allow us to do what we are doing

Therefore, if you are a happy ORCA user, please consider citing a few of the papers listed below in the main body of your paper

In addition to the list printed below, the program has created the file m1_00_PEt2Ph-PBE0-D3-TZ.bibtex that contains the list in bibtex format
You can import this file easily into all common literature databanks and citation aid programs


List of essential papers. We consider these as the minimum necessary citations

  1. Neese,F.
     Software update: the ORCA program system, version 5.0
     WIRES Comput. Molec. Sci., 2022 12(1)e1606
     doi.org/10.1002/wcms.1606

List of papers to cite with high priority. The work reported in these papers was absolutely
necessary for this run to complete.
Our perspective: the developers of density functionals and basis sets usually get cited in chemistry papers
Good! But without the algorithms to do something with them, the functionals or basis sets would not do anything.
Hence, in our opinion, the algorithm design and method developments papers are equally worthy of getting cited

  1. Neese,F.
     An improvement of the resolution of the identity approximation for the formation of the Coulomb matrix
     J. Comp. Chem., 2003 24(14)1740-1747
     doi.org/10.1002/jcc.10318
  2. Neese,F.; Wennmohs,F.; Hansen,A.; Becker,U.
     Efficient, approximate and parallel Hartree-Fock and hybrid DFT calculations. A 'chain-of-spheres' algorithm for the Hartree-Fock exchange
     Chem. Phys., 2009 356(1-3)98-109
     doi.org/10.1016/j.chemphys.2008.10.036
  3. Bykov,D.; Petrenko,T.; Izsak,R.; Kossmann,S.; Becker,U.; Valeev,E.; Neese,F.
     Efficient implementation of the analytic second derivatives of Hartree-Fock and hybrid DFT energies: a detailed analysis of different approximations
     Molec. Phys., 2015 113 1961-1977
     doi.org/10.1080/00268976.2015.1025114
  4. Helmich-Paris,B.; de Souza,B.; Neese,F.; Izsák,R.
     An improved chain of spheres for exchange algorithm
     J. Chem. Phys., 2021 155 104109
     doi.org/doi: 10.1063/5.0058766.
  5. Neese,F.
     The SHARK Integral Generation and Digestion System
     J. Comp. Chem., 2022  1-16
     doi.org/10.1002/jcc.26942
  6. Grimme,S.; Antony,J.; Ehrlich,S.; Krieg,H.
     A consistent and accurate ab initio parametrization of density functional dispersion correction (DFT-D) for the 94 elements H-Pu
     J. Chem. Phys., 2010 132 154104
     doi.org/10.1063/1.3382344
  7. Grimme,S.; Ehrlich,S.; Goerigk,L.
     Effect of the damping function in dispersion corrected density functional theory
     J. Comput. Chem., 2011 32(7)1456-1465
     doi.org/10.1002/jcc.21759

List of suggested additional citations. These are papers that are important in the 'surrounding' of 
of this run, or papers that preceded the highly important papers. If you like your results we are grateful for a citation.

  1. Izsak,R.; Neese,F.
     An overlap fitted chain of spheres exchange method
     J. Chem. Phys., 2011 135 144105
     doi.org/10.1063/1.3646921
  2. Izsak,R.; Hansen,A.; Neese,F.
     The resolution of identity and chain of spheres approximations for the LPNO-CCSD singles Fock term
     Molec. Phys., 2012 110 2413-2417
     doi.org/10.1080/00268976.2012.687466
  3. Neese,F.
     The ORCA program system
     WIRES Comput. Molec. Sci., 2012 2(1)73-78
     doi.org/10.1002/wcms.81
  4. Izsak,R.; Neese,F.; Klopper,W.
     Robust fitting techniques in the chain of spheres approximation to the Fock exchange: The role of the complementary space
     J. Chem. Phys., 2013 139 
     doi.org/10.1063/1.4819264
  5. Neese,F.
     Software update: the ORCA program system, version 4.0
     WIRES Comput. Molec. Sci., 2018 8(1)1-6
     doi.org/10.1002/wcms.1327
  6. Neese,F.; Wennmohs,F.; Becker,U.; Riplinger,C.
     The ORCA quantum chemistry program package
     J. Chem. Phys., 2020 152 Art. No. L224108
     doi.org/10.1063/5.0004608

List of optional additional citations

  1. Neese,F.
     Approximate second-order SCF convergence for spin unrestricted wavefunctions
     Chem. Phys. Lett., 2000 325(1-3)93-98
     doi.org/10.1016/s0009-2614(00)00662-x

Timings for individual modules:

Sum of individual times          ...     2153.729 sec (=  35.895 min)
Startup calculation              ...       42.021 sec (=   0.700 min)   2.0 %
SCF iterations                   ...      640.326 sec (=  10.672 min)  29.7 %
Property integrals               ...      410.821 sec (=   6.847 min)  19.1 %
SCF Response                     ...      284.564 sec (=   4.743 min)  13.2 %
Property calculations            ...      433.260 sec (=   7.221 min)  20.1 %
SCF Gradient evaluation          ...      342.682 sec (=   5.711 min)  15.9 %
Geometry relaxation              ...        0.055 sec (=   0.001 min)   0.0 %
                             ****ORCA TERMINATED NORMALLY****
TOTAL RUN TIME: 0 days 0 hours 35 minutes 55 seconds 456 msec
